  64  64   0   0
  0.2672958E+02  0.8532700E-09  0.8497000E-09  0.2359500E-08  0.5000000E-15
  1.000000000000000E-004
  CAR 
 ni3al                                   
      5.45392682    -45.61547972  301      1.02620478      1.00000000
    -45.615  0.0000E+00  0.0000E+00  0.0000E+00  0.0000E+00
    -45.445  0.0000E+00  0.0000E+00  0.0000E+00  0.0000E+00
    -45.275  0.0000E+00  0.0000E+00  0.0000E+00  0.0000E+00
    -45.105  0.0000E+00  0.0000E+00  0.0000E+00  0.0000E+00
    -44.935  0.0000E+00  0.0000E+00  0.0000E+00  0.0000E+00
    -44.764  0.0000E+00  0.0000E+00  0.0000E+00  0.0000E+00
    -44.594  0.0000E+00  0.0000E+00  0.0000E+00  0.0000E+00
    -44.424  0.0000E+00  0.0000E+00  0.0000E+00  0.0000E+00
    -44.254  0.0000E+00  0.0000E+00  0.0000E+00  0.0000E+00
    -44.083  0.0000E+00  0.0000E+00  0.0000E+00  0.0000E+00
    -43.913  0.0000E+00  0.0000E+00  0.0000E+00  0.0000E+00
    -43.743  0.0000E+00  0.0000E+00  0.0000E+00  0.0000E+00
    -43.573  0.0000E+00  0.0000E+00  0.0000E+00  0.0000E+00
    -43.402  0.0000E+00  0.0000E+00  0.0000E+00  0.0000E+00
    -43.232  0.0000E+00  0.1762E+02  0.0000E+00  0.3000E+01
    -43.062  0.0000E+00  0.9399E+02  0.0000E+00  0.1900E+02
    -42.892  0.0000E+00  0.2937E+02  0.0000E+00  0.2400E+02
    -42.722  0.2350E+02  0.2350E+02  0.4000E+01  0.2800E+02
    -42.551  0.2937E+02  0.1175E+02  0.9000E+01  0.3000E+02
    -42.381  0.0000E+00  0.0000E+00  0.9000E+01  0.3000E+02
    -42.211  0.5874E+01  0.0000E+00  0.1000E+02  0.3000E+02
    -42.041  0.1175E+02  0.0000E+00  0.1200E+02  0.3000E+02
    -41.870  0.1175E+02  0.0000E+00  0.1400E+02  0.3000E+02
    -41.700  0.8224E+02  0.0000E+00  0.2800E+02  0.3000E+02
    -41.530  0.2937E+02  0.5874E+01  0.3300E+02  0.3100E+02
    -41.360  0.0000E+00  0.1175E+02  0.3300E+02  0.3300E+02
    -41.189  0.0000E+00  0.0000E+00  0.3300E+02  0.3300E+02
    -41.019  0.0000E+00  0.0000E+00  0.3300E+02  0.3300E+02
    -40.849  0.0000E+00  0.0000E+00  0.3300E+02  0.3300E+02
    -40.679  0.0000E+00  0.0000E+00  0.3300E+02  0.3300E+02
    -40.509  0.0000E+00  0.0000E+00  0.3300E+02  0.3300E+02
    -40.338  0.1175E+02  0.1175E+02  0.3500E+02  0.3500E+02
    -40.168  0.2937E+02  0.0000E+00  0.4000E+02  0.3500E+02
    -39.998  0.1175E+02  0.5874E+01  0.4200E+02  0.3600E+02
    -39.828  0.0000E+00  0.1762E+02  0.4200E+02  0.3900E+02
    -39.657  0.0000E+00  0.1175E+02  0.4200E+02  0.4100E+02
    -39.487  0.0000E+00  0.5874E+01  0.4200E+02  0.4200E+02
    -39.317  0.0000E+00  0.0000E+00  0.4200E+02  0.4200E+02
    -39.147  0.0000E+00  0.0000E+00  0.4200E+02  0.4200E+02
    -38.976  0.0000E+00  0.0000E+00  0.4200E+02  0.4200E+02
    -38.806  0.0000E+00  0.0000E+00  0.4200E+02  0.4200E+02
    -38.636  0.0000E+00  0.0000E+00  0.4200E+02  0.4200E+02
    -38.466  0.0000E+00  0.0000E+00  0.4200E+02  0.4200E+02
    -38.296  0.0000E+00  0.0000E+00  0.4200E+02  0.4200E+02
    -38.125  0.0000E+00  0.0000E+00  0.4200E+02  0.4200E+02
    -37.955  0.0000E+00  0.0000E+00  0.4200E+02  0.4200E+02
    -37.785  0.0000E+00  0.0000E+00  0.4200E+02  0.4200E+02
    -37.615  0.0000E+00  0.0000E+00  0.4200E+02  0.4200E+02
    -37.444  0.0000E+00  0.0000E+00  0.4200E+02  0.4200E+02
    -37.274  0.0000E+00  0.0000E+00  0.4200E+02  0.4200E+02
    -37.104  0.0000E+00  0.0000E+00  0.4200E+02  0.4200E+02
    -36.934  0.0000E+00  0.0000E+00  0.4200E+02  0.4200E+02
    -36.763  0.0000E+00  0.0000E+00  0.4200E+02  0.4200E+02
    -36.593  0.0000E+00  0.0000E+00  0.4200E+02  0.4200E+02
    -36.423  0.0000E+00  0.0000E+00  0.4200E+02  0.4200E+02
    -36.253  0.0000E+00  0.0000E+00  0.4200E+02  0.4200E+02
    -36.083  0.0000E+00  0.0000E+00  0.4200E+02  0.4200E+02
    -35.912  0.0000E+00  0.0000E+00  0.4200E+02  0.4200E+02
    -35.742  0.0000E+00  0.0000E+00  0.4200E+02  0.4200E+02
    -35.572  0.0000E+00  0.0000E+00  0.4200E+02  0.4200E+02
    -35.402  0.0000E+00  0.0000E+00  0.4200E+02  0.4200E+02
    -35.231  0.0000E+00  0.0000E+00  0.4200E+02  0.4200E+02
    -35.061  0.0000E+00  0.0000E+00  0.4200E+02  0.4200E+02
    -34.891  0.0000E+00  0.0000E+00  0.4200E+02  0.4200E+02
    -34.721  0.0000E+00  0.0000E+00  0.4200E+02  0.4200E+02
    -34.550  0.0000E+00  0.0000E+00  0.4200E+02  0.4200E+02
    -34.380  0.0000E+00  0.0000E+00  0.4200E+02  0.4200E+02
    -34.210  0.0000E+00  0.0000E+00  0.4200E+02  0.4200E+02
    -34.040  0.0000E+00  0.0000E+00  0.4200E+02  0.4200E+02
    -33.870  0.0000E+00  0.0000E+00  0.4200E+02  0.4200E+02
    -33.699  0.0000E+00  0.0000E+00  0.4200E+02  0.4200E+02
    -33.529  0.0000E+00  0.0000E+00  0.4200E+02  0.4200E+02
    -33.359  0.0000E+00  0.0000E+00  0.4200E+02  0.4200E+02
    -33.189  0.0000E+00  0.0000E+00  0.4200E+02  0.4200E+02
    -33.018  0.0000E+00  0.0000E+00  0.4200E+02  0.4200E+02
    -32.848  0.0000E+00  0.0000E+00  0.4200E+02  0.4200E+02
    -32.678  0.0000E+00  0.0000E+00  0.4200E+02  0.4200E+02
    -32.508  0.0000E+00  0.0000E+00  0.4200E+02  0.4200E+02
    -32.337  0.0000E+00  0.0000E+00  0.4200E+02  0.4200E+02
    -32.167  0.0000E+00  0.0000E+00  0.4200E+02  0.4200E+02
    -31.997  0.0000E+00  0.0000E+00  0.4200E+02  0.4200E+02
    -31.827  0.0000E+00  0.0000E+00  0.4200E+02  0.4200E+02
    -31.657  0.0000E+00  0.0000E+00  0.4200E+02  0.4200E+02
    -31.486  0.0000E+00  0.0000E+00  0.4200E+02  0.4200E+02
    -31.316  0.0000E+00  0.0000E+00  0.4200E+02  0.4200E+02
    -31.146  0.0000E+00  0.0000E+00  0.4200E+02  0.4200E+02
    -30.976  0.0000E+00  0.0000E+00  0.4200E+02  0.4200E+02
    -30.805  0.0000E+00  0.0000E+00  0.4200E+02  0.4200E+02
    -30.635  0.0000E+00  0.0000E+00  0.4200E+02  0.4200E+02
    -30.465  0.0000E+00  0.0000E+00  0.4200E+02  0.4200E+02
    -30.295  0.0000E+00  0.0000E+00  0.4200E+02  0.4200E+02
    -30.124  0.0000E+00  0.0000E+00  0.4200E+02  0.4200E+02
    -29.954  0.0000E+00  0.0000E+00  0.4200E+02  0.4200E+02
    -29.784  0.0000E+00  0.0000E+00  0.4200E+02  0.4200E+02
    -29.614  0.0000E+00  0.0000E+00  0.4200E+02  0.4200E+02
    -29.444  0.0000E+00  0.0000E+00  0.4200E+02  0.4200E+02
    -29.273  0.0000E+00  0.0000E+00  0.4200E+02  0.4200E+02
    -29.103  0.0000E+00  0.0000E+00  0.4200E+02  0.4200E+02
    -28.933  0.0000E+00  0.0000E+00  0.4200E+02  0.4200E+02
    -28.763  0.0000E+00  0.0000E+00  0.4200E+02  0.4200E+02
    -28.592  0.0000E+00  0.0000E+00  0.4200E+02  0.4200E+02
    -28.422  0.0000E+00  0.0000E+00  0.4200E+02  0.4200E+02
    -28.252  0.0000E+00  0.0000E+00  0.4200E+02  0.4200E+02
    -28.082  0.0000E+00  0.0000E+00  0.4200E+02  0.4200E+02
    -27.911  0.0000E+00  0.0000E+00  0.4200E+02  0.4200E+02
    -27.741  0.0000E+00  0.0000E+00  0.4200E+02  0.4200E+02
    -27.571  0.0000E+00  0.0000E+00  0.4200E+02  0.4200E+02
    -27.401  0.0000E+00  0.0000E+00  0.4200E+02  0.4200E+02
    -27.230  0.0000E+00  0.0000E+00  0.4200E+02  0.4200E+02
    -27.060  0.0000E+00  0.0000E+00  0.4200E+02  0.4200E+02
    -26.890  0.0000E+00  0.0000E+00  0.4200E+02  0.4200E+02
    -26.720  0.0000E+00  0.0000E+00  0.4200E+02  0.4200E+02
    -26.550  0.0000E+00  0.0000E+00  0.4200E+02  0.4200E+02
    -26.379  0.0000E+00  0.0000E+00  0.4200E+02  0.4200E+02
    -26.209  0.0000E+00  0.0000E+00  0.4200E+02  0.4200E+02
    -26.039  0.0000E+00  0.0000E+00  0.4200E+02  0.4200E+02
    -25.869  0.0000E+00  0.0000E+00  0.4200E+02  0.4200E+02
    -25.698  0.0000E+00  0.0000E+00  0.4200E+02  0.4200E+02
    -25.528  0.0000E+00  0.0000E+00  0.4200E+02  0.4200E+02
    -25.358  0.0000E+00  0.0000E+00  0.4200E+02  0.4200E+02
    -25.188  0.0000E+00  0.0000E+00  0.4200E+02  0.4200E+02
    -25.017  0.0000E+00  0.0000E+00  0.4200E+02  0.4200E+02
    -24.847  0.0000E+00  0.0000E+00  0.4200E+02  0.4200E+02
    -24.677  0.0000E+00  0.0000E+00  0.4200E+02  0.4200E+02
    -24.507  0.0000E+00  0.0000E+00  0.4200E+02  0.4200E+02
    -24.337  0.0000E+00  0.0000E+00  0.4200E+02  0.4200E+02
    -24.166  0.0000E+00  0.0000E+00  0.4200E+02  0.4200E+02
    -23.996  0.0000E+00  0.0000E+00  0.4200E+02  0.4200E+02
    -23.826  0.0000E+00  0.0000E+00  0.4200E+02  0.4200E+02
    -23.656  0.0000E+00  0.0000E+00  0.4200E+02  0.4200E+02
    -23.485  0.0000E+00  0.0000E+00  0.4200E+02  0.4200E+02
    -23.315  0.0000E+00  0.0000E+00  0.4200E+02  0.4200E+02
    -23.145  0.0000E+00  0.0000E+00  0.4200E+02  0.4200E+02
    -22.975  0.0000E+00  0.0000E+00  0.4200E+02  0.4200E+02
    -22.804  0.0000E+00  0.0000E+00  0.4200E+02  0.4200E+02
    -22.634  0.0000E+00  0.0000E+00  0.4200E+02  0.4200E+02
    -22.464  0.0000E+00  0.0000E+00  0.4200E+02  0.4200E+02
    -22.294  0.0000E+00  0.0000E+00  0.4200E+02  0.4200E+02
    -22.124  0.0000E+00  0.0000E+00  0.4200E+02  0.4200E+02
    -21.953  0.0000E+00  0.0000E+00  0.4200E+02  0.4200E+02
    -21.783  0.0000E+00  0.0000E+00  0.4200E+02  0.4200E+02
    -21.613  0.0000E+00  0.0000E+00  0.4200E+02  0.4200E+02
    -21.443  0.0000E+00  0.0000E+00  0.4200E+02  0.4200E+02
    -21.272  0.0000E+00  0.0000E+00  0.4200E+02  0.4200E+02
    -21.102  0.0000E+00  0.0000E+00  0.4200E+02  0.4200E+02
    -20.932  0.0000E+00  0.0000E+00  0.4200E+02  0.4200E+02
    -20.762  0.0000E+00  0.0000E+00  0.4200E+02  0.4200E+02
    -20.591  0.0000E+00  0.0000E+00  0.4200E+02  0.4200E+02
    -20.421  0.0000E+00  0.0000E+00  0.4200E+02  0.4200E+02
    -20.251  0.0000E+00  0.0000E+00  0.4200E+02  0.4200E+02
    -20.081  0.0000E+00  0.0000E+00  0.4200E+02  0.4200E+02
    -19.911  0.0000E+00  0.0000E+00  0.4200E+02  0.4200E+02
    -19.740  0.0000E+00  0.0000E+00  0.4200E+02  0.4200E+02
    -19.570  0.0000E+00  0.0000E+00  0.4200E+02  0.4200E+02
    -19.400  0.0000E+00  0.0000E+00  0.4200E+02  0.4200E+02
    -19.230  0.0000E+00  0.0000E+00  0.4200E+02  0.4200E+02
    -19.059  0.0000E+00  0.0000E+00  0.4200E+02  0.4200E+02
    -18.889  0.0000E+00  0.0000E+00  0.4200E+02  0.4200E+02
    -18.719  0.0000E+00  0.0000E+00  0.4200E+02  0.4200E+02
    -18.549  0.0000E+00  0.0000E+00  0.4200E+02  0.4200E+02
    -18.378  0.0000E+00  0.0000E+00  0.4200E+02  0.4200E+02
    -18.208  0.0000E+00  0.0000E+00  0.4200E+02  0.4200E+02
    -18.038  0.0000E+00  0.0000E+00  0.4200E+02  0.4200E+02
    -17.868  0.0000E+00  0.0000E+00  0.4200E+02  0.4200E+02
    -17.698  0.0000E+00  0.0000E+00  0.4200E+02  0.4200E+02
    -17.527  0.0000E+00  0.0000E+00  0.4200E+02  0.4200E+02
    -17.357  0.0000E+00  0.0000E+00  0.4200E+02  0.4200E+02
    -17.187  0.0000E+00  0.0000E+00  0.4200E+02  0.4200E+02
    -17.017  0.0000E+00  0.0000E+00  0.4200E+02  0.4200E+02
    -16.846  0.0000E+00  0.0000E+00  0.4200E+02  0.4200E+02
    -16.676  0.0000E+00  0.0000E+00  0.4200E+02  0.4200E+02
    -16.506  0.0000E+00  0.0000E+00  0.4200E+02  0.4200E+02
    -16.336  0.0000E+00  0.0000E+00  0.4200E+02  0.4200E+02
    -16.165  0.0000E+00  0.0000E+00  0.4200E+02  0.4200E+02
    -15.995  0.0000E+00  0.0000E+00  0.4200E+02  0.4200E+02
    -15.825  0.0000E+00  0.0000E+00  0.4200E+02  0.4200E+02
    -15.655  0.0000E+00  0.0000E+00  0.4200E+02  0.4200E+02
    -15.485  0.0000E+00  0.0000E+00  0.4200E+02  0.4200E+02
    -15.314  0.5874E+01  0.5874E+01  0.4300E+02  0.4300E+02
    -15.144  0.2350E+02  0.2350E+02  0.4700E+02  0.4700E+02
    -14.974  0.0000E+00  0.0000E+00  0.4700E+02  0.4700E+02
    -14.804  0.0000E+00  0.0000E+00  0.4700E+02  0.4700E+02
    -14.633  0.0000E+00  0.0000E+00  0.4700E+02  0.4700E+02
    -14.463  0.0000E+00  0.0000E+00  0.4700E+02  0.4700E+02
    -14.293  0.0000E+00  0.0000E+00  0.4700E+02  0.4700E+02
    -14.123  0.0000E+00  0.0000E+00  0.4700E+02  0.4700E+02
    -13.952  0.0000E+00  0.0000E+00  0.4700E+02  0.4700E+02
    -13.782  0.0000E+00  0.0000E+00  0.4700E+02  0.4700E+02
    -13.612  0.0000E+00  0.0000E+00  0.4700E+02  0.4700E+02
    -13.442  0.0000E+00  0.0000E+00  0.4700E+02  0.4700E+02
    -13.272  0.0000E+00  0.0000E+00  0.4700E+02  0.4700E+02
    -13.101  0.0000E+00  0.0000E+00  0.4700E+02  0.4700E+02
    -12.931  0.0000E+00  0.0000E+00  0.4700E+02  0.4700E+02
    -12.761  0.0000E+00  0.0000E+00  0.4700E+02  0.4700E+02
    -12.591  0.0000E+00  0.0000E+00  0.4700E+02  0.4700E+02
    -12.420  0.0000E+00  0.0000E+00  0.4700E+02  0.4700E+02
    -12.250  0.0000E+00  0.0000E+00  0.4700E+02  0.4700E+02
    -12.080  0.0000E+00  0.0000E+00  0.4700E+02  0.4700E+02
    -11.910  0.0000E+00  0.0000E+00  0.4700E+02  0.4700E+02
    -11.739  0.0000E+00  0.0000E+00  0.4700E+02  0.4700E+02
    -11.569  0.0000E+00  0.0000E+00  0.4700E+02  0.4700E+02
    -11.399  0.0000E+00  0.0000E+00  0.4700E+02  0.4700E+02
    -11.229  0.0000E+00  0.0000E+00  0.4700E+02  0.4700E+02
    -11.059  0.0000E+00  0.0000E+00  0.4700E+02  0.4700E+02
    -10.888  0.0000E+00  0.0000E+00  0.4700E+02  0.4700E+02
    -10.718  0.0000E+00  0.0000E+00  0.4700E+02  0.4700E+02
    -10.548  0.0000E+00  0.0000E+00  0.4700E+02  0.4700E+02
    -10.378  0.0000E+00  0.0000E+00  0.4700E+02  0.4700E+02
    -10.207  0.0000E+00  0.0000E+00  0.4700E+02  0.4700E+02
    -10.037  0.0000E+00  0.0000E+00  0.4700E+02  0.4700E+02
     -9.867  0.0000E+00  0.0000E+00  0.4700E+02  0.4700E+02
     -9.697  0.0000E+00  0.0000E+00  0.4700E+02  0.4700E+02
     -9.526  0.0000E+00  0.0000E+00  0.4700E+02  0.4700E+02
     -9.356  0.0000E+00  0.0000E+00  0.4700E+02  0.4700E+02
     -9.186  0.0000E+00  0.0000E+00  0.4700E+02  0.4700E+02
     -9.016  0.0000E+00  0.0000E+00  0.4700E+02  0.4700E+02
     -8.846  0.0000E+00  0.0000E+00  0.4700E+02  0.4700E+02
     -8.675  0.0000E+00  0.0000E+00  0.4700E+02  0.4700E+02
     -8.505  0.0000E+00  0.0000E+00  0.4700E+02  0.4700E+02
     -8.335  0.0000E+00  0.0000E+00  0.4700E+02  0.4700E+02
     -8.165  0.0000E+00  0.0000E+00  0.4700E+02  0.4700E+02
     -7.994  0.0000E+00  0.0000E+00  0.4700E+02  0.4700E+02
     -7.824  0.0000E+00  0.0000E+00  0.4700E+02  0.4700E+02
     -7.654  0.0000E+00  0.0000E+00  0.4700E+02  0.4700E+02
     -7.484  0.0000E+00  0.0000E+00  0.4700E+02  0.4700E+02
     -7.313  0.2202E+02  0.5874E+01  0.4750E+02  0.4800E+02
     -7.143  0.3671E+00  0.0000E+00  0.4800E+02  0.4800E+02
     -6.973  0.2300E+01  0.1084E+01  0.4820E+02  0.4803E+02
     -6.803  0.1643E+01  0.1479E+01  0.4848E+02  0.4832E+02
     -6.632  0.1506E+01  0.1717E+01  0.4877E+02  0.4859E+02
     -6.462  0.1943E+01  0.1128E+01  0.4899E+02  0.4885E+02
     -6.292  0.1834E+01  0.1936E+01  0.4933E+02  0.4911E+02
     -6.122  0.3045E+01  0.1605E+01  0.4967E+02  0.4941E+02
     -5.952  0.3073E+01  0.3354E+01  0.5010E+02  0.4974E+02
     -5.781  0.4568E+01  0.3589E+01  0.5079E+02  0.5022E+02
     -5.611  0.2720E+01  0.4128E+01  0.5140E+02  0.5089E+02
     -5.441  0.3567E+01  0.2396E+01  0.5177E+02  0.5143E+02
     -5.271  0.3480E+01  0.3223E+01  0.5238E+02  0.5183E+02
     -5.100  0.8851E+01  0.3231E+01  0.5314E+02  0.5239E+02
     -4.930  0.5015E+01  0.7711E+01  0.5405E+02  0.5315E+02
     -4.760  0.4198E+01  0.3871E+01  0.5506E+02  0.5399E+02
     -4.590  0.5144E+01  0.5362E+01  0.5575E+02  0.5470E+02
     -4.419  0.1081E+02  0.4153E+01  0.5683E+02  0.5549E+02
     -4.249  0.7841E+01  0.4093E+01  0.5837E+02  0.5594E+02
     -4.079  0.1146E+02  0.1113E+02  0.6023E+02  0.5738E+02
     -3.909  0.2896E+02  0.6041E+01  0.6296E+02  0.5872E+02
     -3.739  0.3061E+02  0.9054E+01  0.6706E+02  0.6005E+02
     -3.568  0.4301E+02  0.8138E+01  0.7292E+02  0.6100E+02
     -3.398  0.4726E+02  0.1082E+02  0.7927E+02  0.6221E+02
     -3.228  0.9383E+02  0.1596E+02  0.8644E+02  0.6456E+02
     -3.058  0.7966E+02  0.2446E+02  0.9658E+02  0.6780E+02
     -2.887  0.8152E+02  0.1883E+02  0.1042E+03  0.7062E+02
     -2.717  0.6817E+02  0.3613E+02  0.1114E+03  0.7495E+02
     -2.547  0.1196E+03  0.1550E+02  0.1217E+03  0.7748E+02
     -2.377  0.1182E+03  0.5649E+02  0.1351E+03  0.8259E+02
     -2.206  0.1349E+03  0.5179E+02  0.1472E+03  0.8806E+02
     -2.036  0.1255E+03  0.5274E+02  0.1582E+03  0.9364E+02
     -1.866  0.1472E+03  0.5866E+02  0.1702E+03  0.9910E+02
     -1.696  0.1564E+03  0.5147E+02  0.1811E+03  0.1047E+03
     -1.526  0.9962E+02  0.7484E+02  0.1932E+03  0.1108E+03
     -1.355  0.9681E+02  0.9407E+02  0.2050E+03  0.1190E+03
     -1.185  0.9520E+02  0.8786E+02  0.2153E+03  0.1281E+03
     -1.015  0.8956E+02  0.1051E+03  0.2231E+03  0.1367E+03
     -0.845  0.1325E+03  0.1009E+03  0.2319E+03  0.1457E+03
     -0.674  0.1375E+03  0.1126E+03  0.2409E+03  0.1552E+03
     -0.504  0.1369E+03  0.1076E+03  0.2535E+03  0.1657E+03
     -0.334  0.1706E+03  0.1177E+03  0.2687E+03  0.1763E+03
     -0.164  0.1648E+03  0.1272E+03  0.2847E+03  0.1879E+03
      0.007  0.1210E+03  0.9462E+02  0.2974E+03  0.1981E+03
      0.177  0.8398E+02  0.7482E+02  0.3067E+03  0.2061E+03
      0.347  0.8446E+02  0.6899E+02  0.3141E+03  0.2133E+03
      0.517  0.6895E+02  0.5097E+02  0.3212E+03  0.2191E+03
      0.687  0.9850E+02  0.5577E+02  0.3278E+03  0.2239E+03
      0.858  0.5952E+02  0.5202E+02  0.3342E+03  0.2293E+03
      1.028  0.4614E+02  0.5597E+02  0.3391E+03  0.2350E+03
      1.198  0.5416E+02  0.8099E+02  0.3441E+03  0.2428E+03
      1.368  0.3396E+02  0.1190E+03  0.3500E+03  0.2520E+03
      1.539  0.7075E+02  0.9544E+02  0.3563E+03  0.2616E+03
      1.709  0.6025E+02  0.1236E+03  0.3626E+03  0.2726E+03
      1.879  0.5916E+02  0.1300E+03  0.3690E+03  0.2853E+03
      2.049  0.4626E+02  0.1394E+03  0.3750E+03  0.2974E+03
      2.220  0.4773E+01  0.1394E+03  0.3760E+03  0.3121E+03
      2.390  0.0000E+00  0.1588E+03  0.3760E+03  0.3280E+03
      2.560  0.0000E+00  0.1634E+03  0.3760E+03  0.3449E+03
      2.730  0.0000E+00  0.1400E+03  0.3760E+03  0.3591E+03
      2.900  0.0000E+00  0.1161E+03  0.3760E+03  0.3697E+03
      3.071  0.0000E+00  0.4210E+02  0.3760E+03  0.3757E+03
      3.241  0.0000E+00  0.3671E+00  0.3760E+03  0.3760E+03
      3.411  0.0000E+00  0.0000E+00  0.3760E+03  0.3760E+03
      3.581  0.0000E+00  0.0000E+00  0.3760E+03  0.3760E+03
      3.752  0.0000E+00  0.0000E+00  0.3760E+03  0.3760E+03
      3.922  0.0000E+00  0.0000E+00  0.3760E+03  0.3760E+03
      4.092  0.0000E+00  0.0000E+00  0.3760E+03  0.3760E+03
      4.262  0.0000E+00  0.0000E+00  0.3760E+03  0.3760E+03
      4.433  0.0000E+00  0.0000E+00  0.3760E+03  0.3760E+03
      4.603  0.0000E+00  0.0000E+00  0.3760E+03  0.3760E+03
      4.773  0.0000E+00  0.0000E+00  0.3760E+03  0.3760E+03
      4.943  0.0000E+00  0.0000E+00  0.3760E+03  0.3760E+03
      5.113  0.0000E+00  0.0000E+00  0.3760E+03  0.3760E+03
      5.284  0.0000E+00  0.0000E+00  0.3760E+03  0.3760E+03
      5.454  0.0000E+00  0.0000E+00  0.3760E+03  0.3760E+03
