 vasp.6.3.2 27Jun22 (build Mar 15 2023 15:45:48) complex                        
  
 executed on             LinuxIFC date 2025.02.10  22:45:08
 running on    4 total cores
 distrk:  each k-point on    4 cores,    1 groups
 distr:  one band on NCORE=   1 cores,    4 groups


--------------------------------------------------------------------------------------------------------


 INCAR:
   SYSTEM = ni3al
   PREC = Accurate
   EDIFF = 1E-5
   ISTART = 0
   ICHARG = 2
   LREAL = Auto
   NSW = 0
   ISIF = 2
   IBRION = -1
   ISMEAR = -5
   SIGMA = 0.1
   ENCUT = 450
   ALGO = Normal
   LMAXMIX = 4
   AMIN = 0.01
   NELM = 150
   LCHARG = .T.
   LWAVE = .T.
   ISPIN = 2
   NCORE = 4
   LELF = .T.
   LDIPOL = .TRUE.
   IDIPOL = 3
   AMIX = 0.05
   BMIX = 0.0001
   IMIX = 4

 POTCAR:    PAW_PBE Fe 06Sep2000                  
 POTCAR:    PAW_PBE Cr_pv 02Aug2007               
 POTCAR:    PAW_PBE Pb_d 06Sep2000                
 -----------------------------------------------------------------------------
|                                                                             |
|           W    W    AA    RRRRR   N    N  II  N    N   GGGG   !!!           |
|           W    W   A  A   R    R  NN   N  II  NN   N  G    G  !!!           |
|           W    W  A    A  R    R  N N  N  II  N N  N  G       !!!           |
|           W WW W  AAAAAA  RRRRR   N  N N  II  N  N N  G  GGG   !            |
|           WW  WW  A    A  R   R   N   NN  II  N   NN  G    G                |
|           W    W  A    A  R    R  N    N  II  N    N   GGGG   !!!           |
|                                                                             |
|     You use a magnetic or noncollinear calculation, but did not specify     |
|     the initial magnetic moment with the MAGMOM tag. Note that a            |
|     default of 1 will be used for all atoms. This ferromagnetic setup       |
|     may break the symmetry of the crystal, in particular it may rule        |
|     out finding an antiferromagnetic solution. Thence, we recommend         |
|     setting the initial magnetic moment manually or verifying carefully     |
|     that this magnetic setup is desired.                                    |
|                                                                             |
 -----------------------------------------------------------------------------

 POTCAR:    PAW_PBE Fe 06Sep2000                  
   VRHFIN =Fe:  d7 s1                                                                               
   LEXCH  = PE                                                                                      
   EATOM  =   594.3153 eV,   43.6809 Ry                                                             
                                                                                                    
   TITEL  = PAW_PBE Fe 06Sep2000                                                                    
   LULTRA =        F    use ultrasoft PP ?                                                          
   IUNSCR =        1    unscreen: 0-lin 1-nonlin 2-no                                               
   RPACOR =    2.000    partial core radius                                                         
   POMASS =   55.847; ZVAL   =    8.000    mass and valenz                                          
   RCORE  =    2.300    outmost cutoff radius                                                       
   RWIGS  =    2.460; RWIGS  =    1.302    wigner-seitz radius (au A)                               
   ENMAX  =  267.882; ENMIN  =  200.911 eV                                                          
   RCLOC  =    1.701    cutoff for local pot                                                        
   LCOR   =        T    correct aug charges                                                         
   LPAW   =        T    paw PP                                                                      
   EAUG   =  511.368                                                                                
   DEXC   =    0.000                                                                                
   RMAX   =    2.356    core radius for proj-oper                                                   
   RAUG   =    1.300    factor for augmentation sphere                                              
   RDEP   =    2.442    radius for radial grids                                                     
   RDEPT  =    1.890    core radius for aug-charge                                                  
                                                                                                    
   Atomic configuration                                                                             
    9 entries                                                                                       
     n  l   j            E        occ.                                                              
     1  0  0.50     -6993.8440   2.0000                                                             
     2  0  0.50      -814.6047   2.0000                                                             
     2  1  1.50      -693.3689   6.0000                                                             
     3  0  0.50       -89.4732   2.0000                                                             
     3  1  1.50       -55.6373   6.0000                                                             
     3  2  2.50        -3.8151   7.0000                                                             
     4  0  0.50        -4.2551   1.0000                                                             
     4  1  1.50        -3.4015   0.0000                                                             
     4  3  2.50        -1.3606   0.0000                                                             
   Description                                                                                      
     l       E           TYP  RCUT    TYP  RCUT                                                     
     2     -3.8151135     23  2.300                                                                 
     2     -5.1756961     23  2.300                                                                 
     0     -4.2550963     23  2.300                                                                 
     0      7.2035603     23  2.300                                                                 
     1     -2.7211652     23  2.300                                                                 
     1     18.4316424     23  2.300                                                                 
  local pseudopotential read in
  partial core-charges read in
  partial kinetic energy density read in
  atomic valenz-charges read in
  non local Contribution for L=           2  read in
    real space projection operators read in
  non local Contribution for L=           2  read in
    real space projection operators read in
  non local Contribution for L=           0  read in
    real space projection operators read in
  non local Contribution for L=           0  read in
    real space projection operators read in
  non local Contribution for L=           1  read in
    real space projection operators read in
  non local Contribution for L=           1  read in
    real space projection operators read in
    PAW grid and wavefunctions read in
 
   number of l-projection  operators is LMAX  =           6
   number of lm-projection operators is LMMAX =          18
 
 POTCAR:    PAW_PBE Cr_pv 02Aug2007               
   VRHFIN =Cr : p6d5s1                                                                              
   LEXCH  = PE                                                                                      
   EATOM  =  1647.9177 eV,  121.1185 Ry                                                             
                                                                                                    
   TITEL  = PAW_PBE Cr_pv 02Aug2007                                                                 
   LULTRA =        F    use ultrasoft PP ?                                                          
   IUNSCR =        1    unscreen: 0-lin 1-nonlin 2-no                                               
   RPACOR =    2.080    partial core radius                                                         
   POMASS =   51.996; ZVAL   =   12.000    mass and valenz                                          
   RCORE  =    2.300    outmost cutoff radius                                                       
   RWIGS  =    2.500; RWIGS  =    1.323    wigner-seitz radius (au A)                               
   ENMAX  =  265.681; ENMIN  =  199.261 eV                                                          
   ICORE  =        3    local potential                                                             
   LCOR   =        T    correct aug charges                                                         
   LPAW   =        T    paw PP                                                                      
   EAUG   =  519.424                                                                                
   DEXC   =    0.000                                                                                
   RMAX   =    2.356    core radius for proj-oper                                                   
   RAUG   =    1.300    factor for augmentation sphere                                              
   RDEP   =    2.447    radius for radial grids                                                     
   RDEPT  =    1.882    core radius for aug-charge                                                  
                                                                                                    
   Atomic configuration                                                                             
    8 entries                                                                                       
     n  l   j            E        occ.                                                              
     1  0  0.50     -5880.4963   2.0000                                                             
     2  0  0.50      -667.0865   2.0000                                                             
     2  1  1.50      -560.6250   6.0000                                                             
     3  0  0.50       -73.9860   2.0000                                                             
     3  1  1.50       -45.4378   6.0000                                                             
     3  2  2.50        -2.9137   5.0000                                                             
     4  0  0.50        -4.0071   1.0000                                                             
     4  3  2.50        -1.3606   0.0000                                                             
   Description                                                                                      
     l       E           TYP  RCUT    TYP  RCUT                                                     
     1    -45.4377911     23  2.000                                                                 
     1      1.3605826     23  2.000                                                                 
     2     -2.9136672     23  2.300                                                                 
     2     -4.2742498     23  2.300                                                                 
     0     -4.0071320     23  2.300                                                                 
     0      9.4498803     23  2.300                                                                 
     3      2.7211652     23  2.300                                                                 
  local pseudopotential read in
  partial core-charges read in
  partial kinetic energy density read in
  atomic valenz-charges read in
  non local Contribution for L=           1  read in
    real space projection operators read in
  non local Contribution for L=           1  read in
    real space projection operators read in
  non local Contribution for L=           2  read in
    real space projection operators read in
  non local Contribution for L=           2  read in
    real space projection operators read in
  non local Contribution for L=           0  read in
    real space projection operators read in
  non local Contribution for L=           0  read in
    real space projection operators read in
    PAW grid and wavefunctions read in
 
   number of l-projection  operators is LMAX  =           6
   number of lm-projection operators is LMMAX =          18
 
 POTCAR:    PAW_PBE Pb_d 06Sep2000                
   VRHFIN =Pb:                                                                                      
   LEXCH  = PE                                                                                      
   EATOM  =  1661.6185 eV,  122.1255 Ry                                                             
                                                                                                    
   TITEL  = PAW_PBE Pb_d 06Sep2000                                                                  
   LULTRA =        F    use ultrasoft PP ?                                                          
   IUNSCR =        1    unscreen: 0-lin 1-nonlin 2-no                                               
   RPACOR =    2.200    partial core radius                                                         
   POMASS =  207.200; ZVAL   =   14.000    mass and valenz                                          
   RCORE  =    2.500    outmost cutoff radius                                                       
   RWIGS  =    3.260; RWIGS  =    1.725    wigner-seitz radius (au A)                               
   ENMAX  =  237.835; ENMIN  =  178.376 eV                                                          
   ICORE  =        3    local potential                                                             
   LCOR   =        T    correct aug charges                                                         
   LPAW   =        T    paw PP                                                                      
   EAUG   =  391.914                                                                                
   DEXC   =    0.000                                                                                
   RMAX   =    2.565    core radius for proj-oper                                                   
   RAUG   =    1.300    factor for augmentation sphere                                              
   RDEP   =    2.643    radius for radial grids                                                     
   RDEPT  =    2.092    core radius for aug-charge                                                  
                                                                                                    
   Atomic configuration                                                                             
   16 entries                                                                                       
     n  l   j            E        occ.                                                              
     1  0  0.50    -88091.8466   2.0000                                                             
     2  0  0.50    -15753.4197   2.0000                                                             
     2  1  1.50    -13508.1797   6.0000                                                             
     3  0  0.50     -3781.7194   2.0000                                                             
     3  1  1.50     -3138.2529   6.0000                                                             
     3  2  2.50     -2483.2977  10.0000                                                             
     4  0  0.50      -856.2895   2.0000                                                             
     4  1  1.50      -645.4942   6.0000                                                             
     4  2  2.50      -401.8768  10.0000                                                             
     4  3  3.50      -132.9059  14.0000                                                             
     5  0  0.50      -144.0950   2.0000                                                             
     5  1  1.50       -85.7879   6.0000                                                             
     5  2  2.50       -21.1769  10.0000                                                             
     6  0  0.50       -12.0372   2.0000                                                             
     6  1  1.50        -3.4971   2.0000                                                             
     5  3  2.50        -2.7212   0.0000                                                             
   Description                                                                                      
     l       E           TYP  RCUT    TYP  RCUT                                                     
     2    -21.1768523     23  2.500                                                                 
     2      1.3605826     23  2.500                                                                 
     0    -12.0371562     23  2.500                                                                 
     0     13.6058260     23  2.500                                                                 
     1     -3.4971339     23  2.500                                                                 
     1     13.6058260     23  2.500                                                                 
     3     -1.3605826      7  2.500                                                                 
  local pseudopotential read in
  partial core-charges read in
  partial kinetic energy density read in
  atomic valenz-charges read in
  non local Contribution for L=           2  read in
    real space projection operators read in
  non local Contribution for L=           2  read in
    real space projection operators read in
  non local Contribution for L=           0  read in
    real space projection operators read in
  non local Contribution for L=           0  read in
    real space projection operators read in
  non local Contribution for L=           1  read in
    real space projection operators read in
  non local Contribution for L=           1  read in
    real space projection operators read in
    PAW grid and wavefunctions read in
 
   number of l-projection  operators is LMAX  =           6
   number of lm-projection operators is LMMAX =          18
 
 Optimization of the real space projectors (new method)

 maximal supplied QI-value         = 16.25
 optimisation between [QCUT,QGAM] = [ 10.73, 21.61] = [ 32.22,130.83] Ry 
 Optimized for a Real-space Cutoff    1.42 Angstroem

   l    n(q)    QCUT    max X(q) W(low)/X(q) W(high)/X(q)  e(spline) 
   2      8    10.726    80.901    0.24E-03    0.41E-03    0.22E-06
   2      8    10.726    75.754    0.24E-03    0.41E-03    0.23E-06
   0      9    10.726    58.752    0.21E-03    0.17E-03    0.42E-07
   0      9    10.726    30.679    0.19E-03    0.16E-03    0.39E-07
   1      9    10.726    17.977    0.20E-03    0.14E-03    0.16E-06
   1      9    10.726    13.559    0.17E-03    0.11E-03    0.13E-06
 Optimization of the real space projectors (new method)

 maximal supplied QI-value         = 16.25
 optimisation between [QCUT,QGAM] = [ 10.73, 21.61] = [ 32.22,130.83] Ry 
 Optimized for a Real-space Cutoff    1.51 Angstroem

   l    n(q)    QCUT    max X(q) W(low)/X(q) W(high)/X(q)  e(spline) 
   1      9    10.726     3.262    0.86E-04    0.42E-04    0.11E-06
   1      9    10.726     5.741    0.19E-03    0.70E-04    0.20E-06
   2      9    10.726    60.438    0.11E-03    0.51E-04    0.13E-06
   2      9    10.726    55.380    0.12E-03    0.51E-04    0.13E-06
   0     10    10.726    80.273    0.42E-04    0.15E-05    0.77E-07
   0     10    10.726    36.654    0.34E-04    0.84E-06    0.69E-07
 Optimization of the real space projectors (new method)

 maximal supplied QI-value         = 15.12
 optimisation between [QCUT,QGAM] = [ 10.73, 21.62] = [ 32.26,130.87] Ry 
 Optimized for a Real-space Cutoff    1.42 Angstroem

   l    n(q)    QCUT    max X(q) W(low)/X(q) W(high)/X(q)  e(spline) 
   2      8    10.734     3.846    0.11E-03    0.12E-04    0.36E-07
   2      8    10.734     8.593    0.24E-03    0.21E-03    0.13E-06
   0      9    10.734    20.082    0.65E-04    0.10E-03    0.71E-07
   0      9    10.734     8.597    0.91E-04    0.14E-03    0.10E-06
   1      9    10.734    33.223    0.24E-03    0.75E-04    0.13E-06
   1      9    10.734    15.899    0.21E-03    0.70E-04    0.12E-06
  PAW_PBE Fe 06Sep2000                  :
 energy of atom  1       EATOM= -594.3153
 kinetic energy error for atom=    0.0034 (will be added to EATOM!!)
  PAW_PBE Cr_pv 02Aug2007               :
 energy of atom  2       EATOM=-1647.9177
 kinetic energy error for atom=    0.0115 (will be added to EATOM!!)
  PAW_PBE Pb_d 06Sep2000                :
 energy of atom  3       EATOM=-1661.6185
 kinetic energy error for atom=    0.0063 (will be added to EATOM!!)
 
 
 POSCAR: Generated by VASPKIT code
  positions in direct lattice
  velocities in cartesian coordinates
 exchange correlation table for  LEXCH =        8
   RHO(1)=    0.500       N(1)  =     2000
   RHO(2)=  100.500       N(2)  =     4000

 VTST: version 4.2, (08/11/21)

 CHAIN: initializing optimizer
 
 OPT: Using VASP Dynamics algorithm
 CHAIN: Read ICHAIN            0
 
 POSCAR: Generated by VASPKIT code
  positions in direct lattice
  velocities in cartesian coordinates
 


--------------------------------------------------------------------------------------------------------


 ion  position               nearest neighbor table
   1  0.001  1.000  0.243-  49 2.45  13 2.45  39 2.45  45 2.46   2 2.46  36 2.47  11 2.48   5 2.49
                            15 2.80  52 2.83   4 2.84  35 2.84   6 2.85  50 2.86
   2  0.166  0.166  0.304-  15 2.41  22 2.42  18 2.43   1 2.46  58 2.47  50 2.47   8 2.48   6 2.48
                            11 2.82   5 2.84   3 2.86   7 2.86  36 2.86
   3  0.501  0.167  0.308-  18 2.42  56 2.49  58 2.50  50 2.52   4 2.52   8 2.52  51 2.53  60 2.53
                             9 2.81  53 2.82   5 2.84   2 2.86  38 2.95  64 3.24
   4  0.668  0.001  0.243-  39 2.44  38 2.45  49 2.45  47 2.46  53 2.47   5 2.47  13 2.48   3 2.52
                            54 2.78  51 2.82  61 2.84   1 2.84  50 2.84  56 2.84
   5  0.834  0.169  0.304-  22 2.39  15 2.39  51 2.46  56 2.47   6 2.47   4 2.47  60 2.48   1 2.49
                             2 2.84   3 2.84  10 2.84  39 2.85  13 2.87
   6  0.000  0.335  0.242-  36 2.46  39 2.46  40 2.46  10 2.46  43 2.47   5 2.47   7 2.47   2 2.48
                            22 2.79  52 2.82  62 2.83  51 2.84   1 2.85   8 2.85
   7  0.166  0.503  0.304-  27 2.40  58 2.42  22 2.43  30 2.44  52 2.44  12 2.45   6 2.47   8 2.49
                            11 2.82  10 2.83   9 2.86   2 2.86  40 2.87
   8  0.335  0.333  0.243-  40 2.45  38 2.45   9 2.46  36 2.46  41 2.46   2 2.48   7 2.49   3 2.52
                            12 2.83  63 2.83  50 2.84  51 2.84   6 2.85  58 2.89
   9  0.502  0.497  0.303-  30 2.40  33 2.41   8 2.46  51 2.46  12 2.48  60 2.48  58 2.49  54 2.49
                             3 2.81  41 2.84  10 2.85   7 2.86  53 2.88
  10  0.835  0.504  0.302-  27 2.39  33 2.43  22 2.44  60 2.45  52 2.46   6 2.46  54 2.47  51 2.48
                            13 2.79  43 2.82   7 2.83   5 2.84   9 2.85
  11  0.168  0.834  0.304-  18 2.40  27 2.43  15 2.46  50 2.46  30 2.47  52 2.47   1 2.48  12 2.49
                            53 2.81   2 2.82   7 2.82  13 2.82  45 2.88
  12  0.333  0.666  0.243-  41 2.45  53 2.45  40 2.45   7 2.45  45 2.46  47 2.47   9 2.48  11 2.49
                            30 2.81  52 2.81   8 2.83  50 2.83  54 2.83  46 2.84
  13  0.837  0.832  0.303-  56 2.38  27 2.40  15 2.44  54 2.44  33 2.45   1 2.45  52 2.46   4 2.48
                            10 2.79  11 2.82  49 2.83   5 2.87  53 2.91
  14  0.001  0.001  0.002-  20 2.46  34 2.46  28 2.46  16 2.48  26 2.83  21 2.83  35 2.84  17 2.85
                            55 2.85
  15  0.997  0.006  0.361-   5 2.39   2 2.41  13 2.44  11 2.46  56 2.74  22 2.78   1 2.80  18 2.84
                            27 2.89
  16  0.168  0.170  0.063-  63 2.44  37 2.45  57 2.45  17 2.46  35 2.46  62 2.46  21 2.46  14 2.48
                            23 2.80  36 2.82  28 2.85  20 2.86  19 2.87
  17  0.335  0.003  0.003-  19 2.45  16 2.46  31 2.46  28 2.46  57 2.81  37 2.82  55 2.83  14 2.85
                            29 2.86
  18  0.330  0.998  0.363-  11 2.40   3 2.42   2 2.43  53 2.44  64 2.78  50 2.81  30 2.84  15 2.84
                            58 2.90  56 2.95
  19  0.505  0.169  0.061-  59 2.43  42 2.45  17 2.45  61 2.46  63 2.47  55 2.47  57 2.48  37 2.48
                            20 2.80  24 2.81  31 2.83  38 2.87  16 2.87
  20  0.833  0.167  0.062-  59 2.43  14 2.46  61 2.46  42 2.46  21 2.46  62 2.46  35 2.46  55 2.50
                            19 2.80  34 2.81  25 2.85  39 2.85  16 2.86
  21  0.000  0.335  0.002-  23 2.46  25 2.46  20 2.46  16 2.46  59 2.81  26 2.83  14 2.83  57 2.83
                            62 2.84
  22  0.999  0.333  0.361-   5 2.39   2 2.42   7 2.43  10 2.44  60 2.76  58 2.78  15 2.78   6 2.79
                            27 2.83
  23  0.168  0.499  0.063-  62 2.45  21 2.46  57 2.46  46 2.46  44 2.46  63 2.47  29 2.47  26 2.48
                            16 2.80  40 2.82  24 2.85  25 2.85  28 2.85
  24  0.501  0.499  0.062-  59 2.43  42 2.45  63 2.45  29 2.46  46 2.46  32 2.47  57 2.47  48 2.47
                            19 2.81  25 2.84  23 2.85  41 2.86  31 2.86
  25  0.834  0.502  0.062-  59 2.42  62 2.45  32 2.45  44 2.46  48 2.46  26 2.46  21 2.46  42 2.46
                            34 2.83  24 2.84  43 2.84  23 2.85  20 2.85
  26  0.001  0.668  0.002-  25 2.46  28 2.46  23 2.48  34 2.48  21 2.83  14 2.83  29 2.84  44 2.85
                            32 2.85
  27  0.999  0.665  0.361-  10 2.39  13 2.40   7 2.40  11 2.43  52 2.79  22 2.83  33 2.86  15 2.89
                            30 2.92
  28  0.168  0.835  0.062-  35 2.45  37 2.46  44 2.46  46 2.46  17 2.46  29 2.46  26 2.46  14 2.46
                            45 2.83  16 2.85  31 2.85  23 2.85  34 2.86
  29  0.334  0.667  0.002-  24 2.46  28 2.46  23 2.47  31 2.47  57 2.83  46 2.83  32 2.84  26 2.84
                            17 2.86
  30  0.341  0.664  0.361-   9 2.40  53 2.42   7 2.44  11 2.47  33 2.76  58 2.76  12 2.81  18 2.84
                            27 2.92
  31  0.502  0.836  0.062-  61 2.44  55 2.45  37 2.45  17 2.46  48 2.46  32 2.47  46 2.47  29 2.47
                            34 2.83  19 2.83  47 2.85  28 2.85  24 2.86
  32  0.668  0.667  0.002-  25 2.45  24 2.47  31 2.47  34 2.47  55 2.80  59 2.81  29 2.84  26 2.85
                            48 2.85
  33  0.664  0.667  0.360-   9 2.41  10 2.43  53 2.44  13 2.45  56 2.75  30 2.76  60 2.76  54 2.76
                            27 2.86
  34  0.833  0.836  0.062-  61 2.44  35 2.46  48 2.46  14 2.46  55 2.46  32 2.47  44 2.47  26 2.48
                            20 2.81  31 2.83  25 2.83  49 2.85  28 2.86
  35  0.001  0.001  0.122-  28 2.45  34 2.46  36 2.46  39 2.46  45 2.46  16 2.46  20 2.46  49 2.47
                            44 2.83  14 2.84  62 2.84   1 2.84  37 2.85  61 2.85
  36  0.167  0.168  0.182-  35 2.46   8 2.46   6 2.46  63 2.46  37 2.46   1 2.47  62 2.47  50 2.49
                            40 2.81  16 2.82  45 2.83  39 2.84  38 2.86   2 2.86
  37  0.335  0.002  0.122-  16 2.45  31 2.45  28 2.46  38 2.46  45 2.46  47 2.46  36 2.46  19 2.48
                            63 2.81  17 2.82  61 2.84  35 2.85  46 2.85  50 2.87
  38  0.502  0.167  0.183-  63 2.44  51 2.44   4 2.45   8 2.45  61 2.46  42 2.46  37 2.46  50 2.47
                            47 2.82  41 2.84  39 2.84  36 2.86  19 2.87   3 2.95
  39  0.834  0.166  0.183-  51 2.44   4 2.44   1 2.45   6 2.46  62 2.46  35 2.46  61 2.46  42 2.47
                            49 2.82  38 2.84  36 2.84  20 2.85   5 2.85  43 2.86
  40  0.170  0.499  0.182-  63 2.45  12 2.45   8 2.45  46 2.45   6 2.46  52 2.46  62 2.46  44 2.47
                            36 2.81  23 2.82  41 2.84  45 2.86   7 2.87  43 2.89
  41  0.502  0.501  0.183-  51 2.45  12 2.45   8 2.46  48 2.46  42 2.46  63 2.47  54 2.47  46 2.47
                            43 2.81  38 2.84  40 2.84   9 2.84  47 2.84  24 2.86
  42  0.667  0.334  0.122-  19 2.45  24 2.45  38 2.46  20 2.46  43 2.46  41 2.46  25 2.46  39 2.47
                            59 2.81  62 2.82  63 2.82  51 2.83  61 2.84  48 2.84
  43  0.831  0.503  0.183-  48 2.44  51 2.45  42 2.46   6 2.47  62 2.47  44 2.47  52 2.47  54 2.48
                            41 2.81  49 2.82  10 2.82  25 2.84  39 2.86  40 2.89
  44  0.001  0.668  0.123-  25 2.46  49 2.46  28 2.46  45 2.46  23 2.46  43 2.47  40 2.47  34 2.47
                            52 2.82  62 2.83  35 2.83  46 2.84  26 2.85  48 2.85
  45  0.169  0.835  0.182-  52 2.45  50 2.46   1 2.46  46 2.46  35 2.46  37 2.46  12 2.46  44 2.46
                            47 2.82  36 2.83  28 2.83  49 2.85  40 2.86  11 2.88
  46  0.334  0.667  0.122-  40 2.45  23 2.46  28 2.46  45 2.46  24 2.46  47 2.46  31 2.47  41 2.47
                            29 2.83  48 2.84  12 2.84  44 2.84  63 2.84  37 2.85
  47  0.500  0.835  0.183-  54 2.43  50 2.44  61 2.45   4 2.46  37 2.46  48 2.46  46 2.46  12 2.47
                            53 2.82  38 2.82  45 2.82  41 2.84  31 2.85  49 2.86
  48  0.667  0.668  0.123-  43 2.44  25 2.46  31 2.46  41 2.46  34 2.46  49 2.46  47 2.46  24 2.47
                            61 2.82  46 2.84  42 2.84  54 2.85  32 2.85  44 2.85
  49  0.835  0.834  0.183-   1 2.45  54 2.45   4 2.45  44 2.46  52 2.46  48 2.46  61 2.46  35 2.47
                            43 2.82  39 2.82  13 2.83  34 2.85  45 2.85  47 2.86
  50  0.336  0.999  0.244-  53 2.39  47 2.44  45 2.46  11 2.46   2 2.47  38 2.47  36 2.49   3 2.52
                            18 2.81  12 2.83   4 2.84   8 2.84   1 2.86  37 2.87
  51  0.668  0.333  0.242-  38 2.44  39 2.44  41 2.45  43 2.45   5 2.46   9 2.46  10 2.48   3 2.53
                             4 2.82  42 2.83   6 2.84   8 2.84  54 2.90  60 2.94
  52  0.004  0.667  0.242-   7 2.44  45 2.45  10 2.46  40 2.46  49 2.46  13 2.46  43 2.47  11 2.47
                            27 2.79  12 2.81  44 2.82   6 2.82   1 2.83  54 2.90
  53  0.497  0.836  0.302-  50 2.39  30 2.42  54 2.43  18 2.44  33 2.44  12 2.45   4 2.47  56 2.47
                            11 2.81   3 2.82  47 2.82   9 2.88  13 2.91
  54  0.665  0.674  0.243-  53 2.43  47 2.43  13 2.44  49 2.45  41 2.47  10 2.47  43 2.48   9 2.49
                            33 2.76   4 2.78  12 2.83  48 2.85  52 2.90  51 2.90
  55  0.666  0.997  0.000-  31 2.45  34 2.46  19 2.47  20 2.50  32 2.80  17 2.83  14 2.85  61 2.89
                            59 2.89
  56  0.676  0.990  0.363-  13 2.38   5 2.47  53 2.47   3 2.49  15 2.74  33 2.75   4 2.84  64 2.84
                            18 2.95  60 3.00
  57  0.332  0.334  0.001-  16 2.45  23 2.46  24 2.47  19 2.48  17 2.81  29 2.83  21 2.83  63 2.86
                            59 2.89
  58  0.324  0.339  0.365-   7 2.42   2 2.47   9 2.49   3 2.50  30 2.76  22 2.78  64 2.85   8 2.89
                            18 2.90  60 3.01
  59  0.670  0.337  0.003-  25 2.42  19 2.43  24 2.43  20 2.43  32 2.81  42 2.81  21 2.81  57 2.89
                            55 2.89
  60  0.676  0.343  0.367-  10 2.45   5 2.48   9 2.48   3 2.53  22 2.76  33 2.76  64 2.85  51 2.94
                            56 3.00  58 3.01
  61  0.667  1.000  0.122-  34 2.44  31 2.44  47 2.45  38 2.46  20 2.46  39 2.46  19 2.46  49 2.46
                            48 2.82   4 2.84  42 2.84  37 2.84  35 2.85  55 2.89
  62  0.998  0.335  0.122-  25 2.45  23 2.45  39 2.46  40 2.46  20 2.46  16 2.46  43 2.47  36 2.47
                            42 2.82  44 2.83   6 2.83  21 2.84  35 2.84  63 2.89
  63  0.337  0.332  0.123-  38 2.44  16 2.44  40 2.45  24 2.45  36 2.46  41 2.47  23 2.47  19 2.47
                            37 2.81  42 2.82   8 2.83  46 2.84  57 2.86  62 2.89
  64  0.499  0.159  0.445-  18 2.78  56 2.84  58 2.85  60 2.85   3 3.24
 
  Warning from LATTYP: Monoclinic adjustment (A1->A3, A2->A1, A3->A2)!
  LATTYP: Found a simple monoclinic cell.
 ALAT       =     8.4969997406
 B/A-ratio  =     2.7768624260
 C/A-ratio  =     1.0042014647
 COS(beta)  =    -0.0000611195
  
  Lattice vectors:
  
 A1 = (  -0.0005193328,   8.4969997247,   0.0000000000)
 A2 = (   0.0000000000,   0.0000000000,  23.5949993134)
 A3 = (   8.5326995850,   0.0000000000,   0.0000000000)


Analysis of symmetry for initial positions (statically):
=====================================================================
 Subroutine PRICEL returns:
 Original cell was already a primitive cell.
 

 Routine SETGRP: Setting up the symmetry group for a 
 simple monoclinic supercell.


 Subroutine GETGRP returns: Found  1 space group operations
 (whereof  1 operations were pure point group operations)
 out of a pool of  4 trial point group operations.


The static configuration has the point symmetry C_1 .


Analysis of symmetry for dynamics (positions and initial velocities):
=====================================================================
 Subroutine PRICEL returns:
 Original cell was already a primitive cell.
 

 Routine SETGRP: Setting up the symmetry group for a 
 simple monoclinic supercell.


 Subroutine GETGRP returns: Found  1 space group operations
 (whereof  1 operations were pure point group operations)
 out of a pool of  4 trial point group operations.


The dynamic configuration has the point symmetry C_1 .


Analysis of constrained symmetry for selective dynamics:
=====================================================================
 Subroutine PRICEL returns:
 Original cell was already a primitive cell.
 

 Routine SETGRP: Setting up the symmetry group for a 
 simple monoclinic supercell.


 Subroutine GETGRP returns: Found  1 space group operations
 (whereof  1 operations were pure point group operations)
 out of a pool of  4 trial point group operations.


The constrained configuration has the point symmetry C_1 .


Analysis of structural, dynamic, and magnetic symmetry:
=====================================================================
 Subroutine PRICEL returns:
 Original cell was already a primitive cell.
 

 Routine SETGRP: Setting up the symmetry group for a 
 simple monoclinic supercell.


 Subroutine GETGRP returns: Found  1 space group operations
 (whereof  1 operations were pure point group operations)
 out of a pool of  4 trial point group operations.


The overall configuration has the point symmetry C_1 .


 Subroutine INISYM returns: Found  1 space group operations
 (whereof  1 operations are pure point group operations),
 and found     1 'primitive' translations


----------------------------------------------------------------------------------------

                                     Primitive cell                                     

  volume of cell :    1710.6928

  direct lattice vectors                    reciprocal lattice vectors
     8.532699585  0.000000000  0.000000000     0.117196204  0.000007163  0.000000000
    -0.000519333  8.496999725  0.000000000     0.000000000  0.117688600  0.000000000
     0.000000000  0.000000000 23.594999313     0.000000000  0.000000000  0.042381862

  length of vectors
     8.532699585  8.496999741 23.594999313     0.117196204  0.117688600  0.042381862

  position of ions in fractional coordinates (direct lattice)
     0.000860000  0.999930000  0.242710000
     0.166267691  0.165756442  0.303695002
     0.501201454  0.166760794  0.307641665
     0.668220000  0.001070000  0.242720000
     0.833741158  0.169462716  0.303810895
     0.000440000  0.334970000  0.242400000
     0.166404622  0.502547766  0.303627397
     0.334690000  0.333050000  0.242670000
     0.501563014  0.497152137  0.303493044
     0.834950846  0.504239166  0.302406588
     0.167619191  0.834249669  0.304490062
     0.333420000  0.665550000  0.242610000
     0.837248309  0.832265438  0.303051234
     0.000640000  0.001190000  0.001990000
     0.996965102  0.005894555  0.361472968
     0.168430000  0.169620000  0.062690000
     0.334600000  0.002970000  0.002540000
     0.330277509  0.998134633  0.362723506
     0.504630000  0.168500000  0.061200000
     0.832720000  0.166700000  0.061930000
     0.000040000  0.334670000  0.002130000
     0.999142679  0.332801929  0.360592095
     0.167570000  0.498950000  0.062680000
     0.500990000  0.498960000  0.062060000
     0.833930000  0.502340000  0.062350000
     0.001210000  0.667850000  0.001880000
     0.998538159  0.665445007  0.360572147
     0.167920000  0.834620000  0.062280000
     0.334370000  0.666640000  0.002250000
     0.340664085  0.664097834  0.361463221
     0.501520000  0.835630000  0.062170000
     0.667530000  0.667050000  0.001750000
     0.663843973  0.666752930  0.360272991
     0.832930000  0.835840000  0.062350000
     0.001210000  0.000980000  0.122250000
     0.167000000  0.168110000  0.182390000
     0.334700000  0.002270000  0.121920000
     0.501740000  0.167160000  0.182630000
     0.834210000  0.166390000  0.182830000
     0.169640000  0.498680000  0.182090000
     0.502190000  0.500810000  0.183170000
     0.667410000  0.333950000  0.122330000
     0.831340000  0.502530000  0.182830000
     0.001320000  0.667950000  0.122530000
     0.168980000  0.835090000  0.182430000
     0.334460000  0.667030000  0.122230000
     0.499710000  0.835380000  0.182780000
     0.666980000  0.668400000  0.122590000
     0.834880000  0.834030000  0.182940000
     0.335580000  0.998630000  0.243530000
     0.668010000  0.332620000  0.242290000
     0.004480000  0.667390000  0.242170000
     0.496555194  0.835537559  0.302203302
     0.665210000  0.673510000  0.243270000
     0.666200000  0.996800000  0.000000000
     0.675933291  0.989530290  0.362990155
     0.332130000  0.333860000  0.001350000
     0.324076047  0.339302269  0.365122518
     0.670400000  0.336730000  0.003210000
     0.676463265  0.342725610  0.366671157
     0.667280000  0.999980000  0.122460000
     0.998060000  0.334950000  0.122350000
     0.336750000  0.332380000  0.122610000
     0.499088092  0.159368275  0.444879195

  ion indices of the primitive-cell ions
   primitive index   ion index
                 1           1
                 2           2
                 3           3
                 4           4
                 5           5
                 6           6
                 7           7
                 8           8
                 9           9
                10          10
                11          11
                12          12
                13          13
                14          14
                15          15
                16          16
                17          17
                18          18
                19          19
                20          20
                21          21
                22          22
                23          23
                24          24
                25          25
                26          26
                27          27
                28          28
                29          29
                30          30
                31          31
                32          32
                33          33
                34          34
                35          35
                36          36
                37          37
                38          38
                39          39
                40          40
                41          41
                42          42
                43          43
                44          44
                45          45
                46          46
                47          47
                48          48
                49          49
                50          50
                51          51
                52          52
                53          53
                54          54
                55          55
                56          56
                57          57
                58          58
                59          59
                60          60
                61          61
                62          62
                63          63
                64          64

----------------------------------------------------------------------------------------

 
 
 KPOINTS: K-Spacing Value to Generate K-Mesh: 0.03

Automatic generation of k-mesh.
 Grid dimensions read from file:
 generate k-points for:    4    4    1

 Generating k-lattice:

  Cartesian coordinates                     Fractional coordinates (reciprocal lattice)
     0.029299051  0.000001791  0.000000000     0.250000000  0.000000000  0.000000000
     0.000000000  0.029422150  0.000000000     0.000000000  0.250000000  0.000000000
     0.000000000  0.000000000  0.042381862     0.000000000  0.000000000  1.000000000

  Length of vectors
     0.029299051  0.029422150  0.042381862

  Shift w.r.t. Gamma in fractional coordinates (k-lattice)
     0.000000000  0.000000000  0.000000000

 TETIRR: Found     48 inequivalent tetrahedra from       96
 
 Subroutine IBZKPT returns following result:
 ===========================================
 
 Found     10 irreducible k-points:
 
 Following reciprocal coordinates:
            Coordinates               Weight
  0.000000  0.000000  0.000000      1.000000
  0.250000  0.000000  0.000000      2.000000
  0.500000  0.000000  0.000000      1.000000
  0.000000  0.250000  0.000000      2.000000
  0.250000  0.250000  0.000000      2.000000
  0.500000  0.250000  0.000000      2.000000
 -0.250000  0.250000  0.000000      2.000000
  0.000000  0.500000  0.000000      1.000000
  0.250000  0.500000  0.000000      2.000000
  0.500000  0.500000  0.000000      1.000000
 
 Following cartesian coordinates:
            Coordinates               Weight
  0.000000  0.000000  0.000000      1.000000
  0.029299  0.000002  0.000000      2.000000
  0.058598  0.000004  0.000000      1.000000
  0.000000  0.029422  0.000000      2.000000
  0.029299  0.029424  0.000000      2.000000
  0.058598  0.029426  0.000000      2.000000
 -0.029299  0.029420  0.000000      2.000000
  0.000000  0.058844  0.000000      1.000000
  0.029299  0.058846  0.000000      2.000000
  0.058598  0.058848  0.000000      1.000000
 


--------------------------------------------------------------------------------------------------------




 Dimension of arrays:
   k-points           NKPTS =     10   k-points in BZ     NKDIM =     10   number of bands    NBANDS=    376
   number of dos      NEDOS =    301   number of ions     NIONS =     64
   non local maximal  LDIM  =      6   non local SUM 2l+1 LMDIM =     18
   total plane-waves  NPLWV = 604800
   max r-space proj   IRMAX =   5137   max aug-charges    IRDMAX=  18968
   dimension x,y,z NGX =    60 NGY =   60 NGZ =  168
   dimension x,y,z NGXF=   120 NGYF=  120 NGZF=  336
   support grid    NGXF=   120 NGYF=  120 NGZF=  336
   ions per type =              49  14   1
   NGX,Y,Z   is equivalent  to a cutoff of  11.69, 11.74, 11.84 a.u.
   NGXF,Y,Z  is equivalent  to a cutoff of  23.38, 23.48, 23.67 a.u.

 SYSTEM =  ni3al                                   
 POSCAR =  Generated by VASPKIT code               

 Startparameter for this run:
   NWRITE =      2    write-flag & timer
   PREC   = accura    normal or accurate (medium, high low for compatibility)
   ISTART =      0    job   : 0-new  1-cont  2-samecut
   ICHARG =      2    charge: 1-file 2-atom 10-const
   ISPIN  =      2    spin polarized calculation?
   LNONCOLLINEAR =      F non collinear calculations
   LSORBIT =      F    spin-orbit coupling
   INIWAV =      1    electr: 0-lowe 1-rand  2-diag
   LASPH  =      F    aspherical Exc in radial PAW
 Electronic Relaxation 1
   ENCUT  =  450.0 eV  33.07 Ry    5.75 a.u.  14.76 14.70 40.81*2*pi/ulx,y,z
   ENINI  =  450.0     initial cutoff
   ENAUG  =  519.4 eV  augmentation charge cutoff
   NELM   =    150;   NELMIN=  2; NELMDL= -5     # of ELM steps 
   EDIFF  = 0.1E-04   stopping-criterion for ELM
   LREAL  =      T    real-space projection
   NLSPLINE    = F    spline interpolate recip. space projectors
   LCOMPAT=      F    compatible to vasp.4.4
   GGA_COMPAT  = T    GGA compatible to vasp.4.4-vasp.4.6
   LMAXPAW     = -100 max onsite density
   LMAXMIX     =    4 max onsite mixed and CHGCAR
   VOSKOWN=      0    Vosko Wilk Nusair interpolation
   ROPT   =   -0.00025  -0.00025  -0.00025
 Ionic relaxation
   EDIFFG = 0.1E-03   stopping-criterion for IOM
   NSW    =      0    number of steps for IOM
   NBLOCK =      1;   KBLOCK =      1    inner block; outer block 
   IBRION =     -1    ionic relax: 0-MD 1-quasi-New 2-CG
   NFREE  =      0    steps in history (QN), initial steepest desc. (CG)
   ISIF   =      2    stress and relaxation
   IWAVPR =     10    prediction:  0-non 1-charg 2-wave 3-comb
   ISYM   =      2    0-nonsym 1-usesym 2-fastsym
   LCORR  =      T    Harris-Foulkes like correction to forces

   POTIM  = 0.5000    time-step for ionic-motion
   TEIN   =    0.0    initial temperature
   TEBEG  =    0.0;   TEEND  =   0.0 temperature during run
   SMASS  =  -3.00    Nose mass-parameter (am)
   estimated Nose-frequenzy (Omega)   =  0.10E-29 period in steps = 0.13E+47 mass=  -0.166E-26a.u.
   SCALEE = 1.0000    scale energy and forces
   NPACO  =    256;   APACO  = 10.0  distance and # of slots for P.C.
   PSTRESS=    0.0 pullay stress

  Mass of Ions in am
   POMASS =  55.85 52.00207.20
  Ionic Valenz
   ZVAL   =   8.00 12.00 14.00
  Atomic Wigner-Seitz radii
   RWIGS  =  -1.00 -1.00 -1.00
  virtual crystal weights 
   VCA    =   1.00  1.00  1.00
   NELECT =     574.0000    total number of electrons
   NUPDOWN=      -1.0000    fix difference up-down

 DOS related values:
   EMIN   =  10.00;   EMAX   =-10.00  energy-range for DOS
   EFERMI =   0.00
   ISMEAR =    -5;   SIGMA  =   0.10  broadening in eV -4-tet -1-fermi 0-gaus

 Electronic relaxation 2 (details)
   IALGO  =     38    algorithm
   LDIAG  =      T    sub-space diagonalisation (order eigenvalues)
   LSUBROT=      F    optimize rotation matrix (better conditioning)
   TURBO    =      0    0=normal 1=particle mesh
   IRESTART =      0    0=no restart 2=restart with 2 vectors
   NREBOOT  =      0    no. of reboots
   NMIN     =      0    reboot dimension
   EREF     =   0.00    reference energy to select bands
   IMIX   =      4    mixing-type and parameters
     AMIX     =   0.05;   BMIX     =  0.00
     AMIX_MAG =   0.20;   BMIX_MAG =  0.00
     AMIN     =   0.01
     WC   =   100.;   INIMIX=   1;  MIXPRE=   1;  MAXMIX= -45

 Intra band minimization:
   WEIMIN = 0.0000     energy-eigenvalue tresh-hold
   EBREAK =  0.66E-08  absolut break condition
   DEPER  =   0.30     relativ break condition  

   TIME   =   0.40     timestep for ELM

  volume/ion in A,a.u.               =      26.73       180.38
  Fermi-wavevector in a.u.,A,eV,Ry     =   1.137596  2.149745 17.607640  1.294125
  Thomas-Fermi vector in A             =   2.274301
 
 Write flags
   LWAVE        =      T    write WAVECAR
   LDOWNSAMPLE  =      F    k-point downsampling of WAVECAR
   LCHARG       =      T    write CHGCAR
   LVTOT        =      F    write LOCPOT, total local potential
   LVHAR        =      F    write LOCPOT, Hartree potential only
   LELF         =      T    write electronic localiz. function (ELF)
   LORBIT       =      0    0 simple, 1 ext, 2 COOP (PROOUT), +10 PAW based schemes


 Dipole corrections
   LMONO  =      F    monopole corrections only (constant potential shift)
   LDIPOL =      T    correct potential (dipole corrections)
   IDIPOL =      3    1-x, 2-y, 3-z, 4-all directions 
   EPSILON=  1.0000000 bulk dielectric constant

 Exchange correlation treatment:
   GGA     =    --    GGA type
   LEXCH   =     8    internal setting for exchange type
   LIBXC   =     F    Libxc                    
   VOSKOWN =     0    Vosko Wilk Nusair interpolation
   LHFCALC =     F    Hartree Fock is set to
   LHFONE  =     F    Hartree Fock one center treatment
   AEXX    =    0.0000 exact exchange contribution

 Linear response parameters
   LEPSILON=     F    determine dielectric tensor
   LRPA    =     F    only Hartree local field effects (RPA)
   LNABLA  =     F    use nabla operator in PAW spheres
   LVEL    =     F    velocity operator in full k-point grid
   CSHIFT  =0.1000    complex shift for real part using Kramers Kronig
   OMEGAMAX=  -1.0    maximum frequency
   DEG_THRESHOLD= 0.2000000E-02 threshold for treating states as degnerate
   RTIME   =   -0.100 relaxation time in fs
  (WPLASMAI=    0.000 imaginary part of plasma frequency in eV, 0.658/RTIME)
   DFIELD  = 0.0000000 0.0000000 0.0000000 field for delta impulse in time
 
  Optional k-point grid parameters
   LKPOINTS_OPT  =     F    use optional k-point grid
   KPOINTS_OPT_MODE=     1    mode for optional k-point grid
 
 Orbital magnetization related:
   ORBITALMAG=     F  switch on orbital magnetization
   LCHIMAG   =     F  perturbation theory with respect to B field
   DQ        =  0.001000  dq finite difference perturbation B field
   LLRAUG    =     F  two centre corrections for induced B field



--------------------------------------------------------------------------------------------------------


 Static calculation
 charge density and potential will be updated during run
 spin polarized calculation
 Variant of blocked Davidson
 Davidson routine will perform the subspace rotation
 perform sub-space diagonalisation
    after iterative eigenvector-optimisation
 modified Broyden-mixing scheme, WC =      100.0
 initial mixing is a Kerker type mixing with AMIX =  0.0500 and BMIX =      0.0001
 Hartree-type preconditioning will be used
 using additional bands           89
 real space projection scheme for non local part
 use partial core corrections
 calculate Harris-corrections to forces 
   (improved forces if not selfconsistent)
 use gradient corrections 
 use of overlap-Matrix (Vanderbilt PP)
 Fermi weights with tetrahedron method with Bloechl corrections


--------------------------------------------------------------------------------------------------------


  energy-cutoff  :      450.00
  volume of cell :     1710.69
      direct lattice vectors                 reciprocal lattice vectors
     8.532699585  0.000000000  0.000000000     0.117196204  0.000007163  0.000000000
    -0.000519333  8.496999725  0.000000000     0.000000000  0.117688600  0.000000000
     0.000000000  0.000000000 23.594999313     0.000000000  0.000000000  0.042381862

  length of vectors
     8.532699585  8.496999741 23.594999313     0.117196204  0.117688600  0.042381862


 
 k-points in units of 2pi/SCALE and weight: K-Spacing Value to Generate K-Mesh: 0.03
   0.00000000  0.00000000  0.00000000       0.062
   0.02929905  0.00000179  0.00000000       0.125
   0.05859810  0.00000358  0.00000000       0.062
   0.00000000  0.02942215  0.00000000       0.125
   0.02929905  0.02942394  0.00000000       0.125
   0.05859810  0.02942573  0.00000000       0.125
  -0.02929905  0.02942036  0.00000000       0.125
   0.00000000  0.05884430  0.00000000       0.062
   0.02929905  0.05884609  0.00000000       0.125
   0.05859810  0.05884788  0.00000000       0.062
 
 k-points in reciprocal lattice and weights: K-Spacing Value to Generate K-Mesh: 0.03
   0.00000000  0.00000000  0.00000000       0.062
   0.25000000  0.00000000  0.00000000       0.125
   0.50000000  0.00000000  0.00000000       0.062
   0.00000000  0.25000000  0.00000000       0.125
   0.25000000  0.25000000  0.00000000       0.125
   0.50000000  0.25000000  0.00000000       0.125
  -0.25000000  0.25000000  0.00000000       0.125
   0.00000000  0.50000000  0.00000000       0.062
   0.25000000  0.50000000  0.00000000       0.125
   0.50000000  0.50000000  0.00000000       0.062
 
 position of ions in fractional coordinates (direct lattice) 
   0.00086000  0.99993000  0.24271000
   0.16626769  0.16575644  0.30369500
   0.50120145  0.16676079  0.30764167
   0.66822000  0.00107000  0.24272000
   0.83374116  0.16946272  0.30381090
   0.00044000  0.33497000  0.24240000
   0.16640462  0.50254777  0.30362740
   0.33469000  0.33305000  0.24267000
   0.50156301  0.49715214  0.30349304
   0.83495085  0.50423917  0.30240659
   0.16761919  0.83424967  0.30449006
   0.33342000  0.66555000  0.24261000
   0.83724831  0.83226544  0.30305123
   0.00064000  0.00119000  0.00199000
   0.99696510  0.00589455  0.36147297
   0.16843000  0.16962000  0.06269000
   0.33460000  0.00297000  0.00254000
   0.33027751  0.99813463  0.36272351
   0.50463000  0.16850000  0.06120000
   0.83272000  0.16670000  0.06193000
   0.00004000  0.33467000  0.00213000
   0.99914268  0.33280193  0.36059210
   0.16757000  0.49895000  0.06268000
   0.50099000  0.49896000  0.06206000
   0.83393000  0.50234000  0.06235000
   0.00121000  0.66785000  0.00188000
   0.99853816  0.66544501  0.36057215
   0.16792000  0.83462000  0.06228000
   0.33437000  0.66664000  0.00225000
   0.34066409  0.66409783  0.36146322
   0.50152000  0.83563000  0.06217000
   0.66753000  0.66705000  0.00175000
   0.66384397  0.66675293  0.36027299
   0.83293000  0.83584000  0.06235000
   0.00121000  0.00098000  0.12225000
   0.16700000  0.16811000  0.18239000
   0.33470000  0.00227000  0.12192000
   0.50174000  0.16716000  0.18263000
   0.83421000  0.16639000  0.18283000
   0.16964000  0.49868000  0.18209000
   0.50219000  0.50081000  0.18317000
   0.66741000  0.33395000  0.12233000
   0.83134000  0.50253000  0.18283000
   0.00132000  0.66795000  0.12253000
   0.16898000  0.83509000  0.18243000
   0.33446000  0.66703000  0.12223000
   0.49971000  0.83538000  0.18278000
   0.66698000  0.66840000  0.12259000
   0.83488000  0.83403000  0.18294000
   0.33558000  0.99863000  0.24353000
   0.66801000  0.33262000  0.24229000
   0.00448000  0.66739000  0.24217000
   0.49655519  0.83553756  0.30220330
   0.66521000  0.67351000  0.24327000
   0.66620000  0.99680000  0.00000000
   0.67593329  0.98953029  0.36299016
   0.33213000  0.33386000  0.00135000
   0.32407605  0.33930227  0.36512252
   0.67040000  0.33673000  0.00321000
   0.67646327  0.34272561  0.36667116
   0.66728000  0.99998000  0.12246000
   0.99806000  0.33495000  0.12235000
   0.33675000  0.33238000  0.12261000
   0.49908809  0.15936828  0.44487919
 
 position of ions in cartesian coordinates  (Angst):
   0.00681883  8.49640493  5.72674228
   1.41862617  1.40843244  7.16568335
   4.27651483  1.41696642  7.25880488
   5.70171996  0.00909179  5.72697823
   7.11397482  1.43992465  7.16841787
   0.00358043  2.84624000  5.71942783
   1.41961966  4.27014823  7.16408822
   2.85563626  2.82992576  5.72579848
   4.27942834  4.22430157  7.16091817
   7.12412287  4.28452005  7.13528323
   1.42981095  7.08861921  7.18444281
   2.84462705  5.65517817  5.72438278
   7.14355607  7.07175920  7.15049366
   0.00546031  0.01011143  0.04695405
   8.50680065  0.05008603  8.52895443
   1.43707450  1.44126109  1.47917051
   2.85503974  0.02523609  0.05993130
   2.81764040  8.48114970  8.55846087
   4.30576868  1.43174445  1.44401396
   7.10526303  1.41644985  1.46123831
   0.00016750  2.84369090  0.05025735
   8.52521149  2.82781790  8.50817024
   1.42956535  4.23957801  1.47893456
   4.27453804  4.23966298  1.46430566
   7.11541328  4.26838284  1.47114821
   0.00997773  5.67472127  0.04435860
   8.51988055  5.65428604  8.50769956
   1.43237747  7.09176591  1.46949656
   2.85273255  5.66443990  0.05308875
   2.90643941  5.64283912  8.52872446
   4.27888553  7.10034788  1.46690111
   5.69548653  5.66792367  0.04129125
   5.66403493  5.66539946  8.50064098
   7.10670739  7.10213225  1.47114821
   0.01032406  0.00832706  2.88448867
   1.42487353  1.42843062  4.30349192
   2.85589337  0.01928819  2.87670232
   4.28110988  1.42035847  4.30915472
   7.11797691  1.41381578  4.31387372
   1.44722818  4.23728382  4.29641342
   4.28477632  4.25538243  4.32189602
   5.69463560  2.83757306  2.88637627
   7.09331349  4.26999727  4.31387372
   0.01091628  5.67557097  2.89109527
   1.44142189  7.09575950  4.30443572
   2.85350029  5.66775373  2.88401677
   4.26344147  7.09822363  4.31269397
   5.69079285  5.67939462  2.89251097
   7.12334709  7.08675268  4.31646917
   2.86288471  8.48535884  5.74609018
   5.69975591  2.82627205  5.71683238
   0.03787990  5.67081265  5.71400098
   4.23652238  7.09956241  7.13048670
   5.67568732  5.72281428  5.73995548
   5.68396679  8.46980933  0.00000000
   5.76702181  8.40803860  8.56475247
   2.83379213  2.83680833  0.03185325
   2.76506734  2.88305128  8.61506556
   5.72014693  2.86119472  0.07573995
   5.77187983  2.91213942  8.65160570
   5.69318046  8.49682978  2.88944362
   8.51597220  2.84607006  2.88684817
   2.87321397  2.82423277  2.89298287
   4.25848599  1.35415219 10.49692430
 


--------------------------------------------------------------------------------------------------------


 k-point   1 :   0.0000 0.0000 0.0000  plane waves:   37053
 k-point   2 :   0.2500 0.0000 0.0000  plane waves:   37082
 k-point   3 :   0.5000 0.0000 0.0000  plane waves:   37122
 k-point   4 :   0.0000 0.2500 0.0000  plane waves:   37091
 k-point   5 :   0.2500 0.2500 0.0000  plane waves:   37070
 k-point   6 :   0.5000 0.2500 0.0000  plane waves:   37050
 k-point   7 :  -0.2500 0.2500 0.0000  plane waves:   37068
 k-point   8 :   0.0000 0.5000 0.0000  plane waves:   37118
 k-point   9 :   0.2500 0.5000 0.0000  plane waves:   37056
 k-point  10 :   0.5000 0.5000 0.0000  plane waves:   37124

 maximum and minimum number of plane-waves per node :     37124    37050

 maximum number of plane-waves:     37124
 maximum index in each direction: 
   IXMAX=   15   IYMAX=   14   IZMAX=   40
   IXMIN=  -15   IYMIN=  -15   IZMIN=  -40


 serial   3D FFT for wavefunctions
 parallel 3D FFT for charge:
    minimum data exchange during FFTs selected (reduces bandwidth)


 total amount of memory used by VASP MPI-rank0  1431203. kBytes
=======================================================================

   base      :      30000. kBytes
   nonlr-proj:      49189. kBytes
   fftplans  :      43220. kBytes
   grid      :     155462. kBytes
   one-center:       1990. kBytes
   wavefun   :    1151342. kBytes
 
     INWAV:  cpu time      0.0001: real time      0.0000
 Broyden mixing: mesh for mixing (old mesh)
   NGX = 29   NGY = 29   NGZ = 81
  (NGX  =120   NGY  =120   NGZ  =336)
  gives a total of  68121 points

 initial charge density was supplied:
 charge density of overlapping atoms calculated
 number of electron     574.0000000 magnetization      64.0000000
 keeping initial charge density in first step


--------------------------------------------------------------------------------------------------------


 Maximum index for non-local projection operator         4950
 Maximum index for augmentation-charges         4499 (set IRDMAX)


--------------------------------------------------------------------------------------------------------


 First call to EWALD:  gamma=   0.148
 Maximum number of real-space cells 4x 4x 2
 Maximum number of reciprocal cells 2x 2x 5

    FEWALD:  cpu time      0.0127: real time      0.0063


--------------------------------------- Iteration      1(   1)  ---------------------------------------


    POTLOK:  cpu time      7.4223: real time      1.5263
    SETDIJ:  cpu time      0.9605: real time      0.1373
     EDDAV:  cpu time    195.6846: real time     28.1093
 BZINTS: Fermi energy:   12.407793;  574.000000 electrons
         Band energy: 0.190601E+04;  BLOECHL correction:   -0.004565
       DOS:  cpu time      0.5384: real time      0.0789
    --------------------------------------------
      LOOP:  cpu time    204.6062: real time     29.8519

 eigenvalue-minimisations  : 15904
 total energy-change (2. order) : 0.5710516E+04  (-0.2446414E+05)
 number of electron     574.0000000 magnetization      64.0000000
 augmentation part      574.0000000 magnetization      64.0000000

 DIPCOR: dipole corrections for dipol
 direction  3 min pos   236,
 dipolmoment           0.000000      0.000000     -0.000299 electrons x Angstroem
 Tr[quadrupol]     -7260.697631

 energy correction for charged system         0.000000 eV
 dipol+quadrupol energy correction           -0.000000 eV
 added-field ion interaction         -0.003920 eV  (added to PSCEN)


 Free energy of the ion-electron system (eV)
  ---------------------------------------------------
  alpha Z        PSCENC =      1868.92618040
  Ewald energy   TEWEN  =    209719.28182834
  -Hartree energ DENC   =   -261597.65669539
  -exchange      EXHF   =         0.00000000
  -V(xc)+E(xc)   XCENC  =       998.80959921
  PAW double counting   =     46919.87437312   -47958.31232237
  entropy T*S    EENTRO =         0.00000000
  eigenvalues    EBANDS =      1906.00877726
  atomic energy  EATOM  =     53853.58386974
  Solvation  Ediel_sol  =         0.00000000
  ---------------------------------------------------
  free energy    TOTEN  =      5710.51561032 eV

  energy without entropy =     5710.51561032  energy(sigma->0) =     5710.51561032


--------------------------------------------------------------------------------------------------------




--------------------------------------- Iteration      1(   2)  ---------------------------------------


     EDDAV:  cpu time    186.7459: real time     26.8288
 BZINTS: Fermi energy:    2.419722;  574.000000 electrons
         Band energy:-0.386353E+04;  BLOECHL correction:   -0.004013
       DOS:  cpu time      0.5149: real time      0.0736
    --------------------------------------------
      LOOP:  cpu time    187.2607: real time     26.9023

 eigenvalue-minimisations  : 15040
 total energy-change (2. order) :-0.5769542E+04  (-0.5569479E+04)
 number of electron     574.0000000 magnetization      64.0000000
 augmentation part      574.0000000 magnetization      64.0000000

 DIPCOR: dipole corrections for dipol
 direction  3 min pos   236,
 dipolmoment           0.000000      0.000000     -0.000299 electrons x Angstroem
 Tr[quadrupol]     -7260.697631

 energy correction for charged system         0.000000 eV
 dipol+quadrupol energy correction           -0.000000 eV
 added-field ion interaction         -0.003920 eV  (added to PSCEN)


 Free energy of the ion-electron system (eV)
  ---------------------------------------------------
  alpha Z        PSCENC =      1868.92618040
  Ewald energy   TEWEN  =    209719.28182834
  -Hartree energ DENC   =   -261597.65669539
  -exchange      EXHF   =         0.00000000
  -V(xc)+E(xc)   XCENC  =       998.80959921
  PAW double counting   =     46919.87437312   -47958.31232237
  entropy T*S    EENTRO =         0.00000000
  eigenvalues    EBANDS =     -3863.53314898
  atomic energy  EATOM  =     53853.58386974
  Solvation  Ediel_sol  =         0.00000000
  ---------------------------------------------------
  free energy    TOTEN  =       -59.02631592 eV

  energy without entropy =      -59.02631592  energy(sigma->0) =      -59.02631592


--------------------------------------------------------------------------------------------------------




--------------------------------------- Iteration      1(   3)  ---------------------------------------


     EDDAV:  cpu time    190.8504: real time     27.3455
 BZINTS: Fermi energy:    1.477393;  574.000000 electrons
         Band energy:-0.433377E+04;  BLOECHL correction:   -0.003649
       DOS:  cpu time      0.5780: real time      0.0832
    --------------------------------------------
      LOOP:  cpu time    191.4284: real time     27.4287

 eigenvalue-minimisations  : 15496
 total energy-change (2. order) :-0.4702369E+03  (-0.4178763E+03)
 number of electron     574.0000000 magnetization      64.0000000
 augmentation part      574.0000000 magnetization      64.0000000

 DIPCOR: dipole corrections for dipol
 direction  3 min pos   236,
 dipolmoment           0.000000      0.000000     -0.000299 electrons x Angstroem
 Tr[quadrupol]     -7260.697631

 energy correction for charged system         0.000000 eV
 dipol+quadrupol energy correction           -0.000000 eV
 added-field ion interaction         -0.003920 eV  (added to PSCEN)


 Free energy of the ion-electron system (eV)
  ---------------------------------------------------
  alpha Z        PSCENC =      1868.92618040
  Ewald energy   TEWEN  =    209719.28182834
  -Hartree energ DENC   =   -261597.65669539
  -exchange      EXHF   =         0.00000000
  -V(xc)+E(xc)   XCENC  =       998.80959921
  PAW double counting   =     46919.87437312   -47958.31232237
  entropy T*S    EENTRO =         0.00000000
  eigenvalues    EBANDS =     -4333.77009020
  atomic energy  EATOM  =     53853.58386974
  Solvation  Ediel_sol  =         0.00000000
  ---------------------------------------------------
  free energy    TOTEN  =      -529.26325715 eV

  energy without entropy =     -529.26325715  energy(sigma->0) =     -529.26325715


--------------------------------------------------------------------------------------------------------




--------------------------------------- Iteration      1(   4)  ---------------------------------------


     EDDAV:  cpu time    294.4815: real time     42.2691
 BZINTS: Fermi energy:    1.318746;  574.000000 electrons
         Band energy:-0.439380E+04;  BLOECHL correction:   -0.004142
       DOS:  cpu time      0.5823: real time      0.0839
    --------------------------------------------
      LOOP:  cpu time    295.0638: real time     42.3531

 eigenvalue-minimisations  : 26440
 total energy-change (2. order) :-0.6003019E+02  (-0.5613365E+02)
 number of electron     574.0000000 magnetization      64.0000000
 augmentation part      574.0000000 magnetization      64.0000000

 DIPCOR: dipole corrections for dipol
 direction  3 min pos   236,
 dipolmoment           0.000000      0.000000     -0.000299 electrons x Angstroem
 Tr[quadrupol]     -7260.697631

 energy correction for charged system         0.000000 eV
 dipol+quadrupol energy correction           -0.000000 eV
 added-field ion interaction         -0.003920 eV  (added to PSCEN)


 Free energy of the ion-electron system (eV)
  ---------------------------------------------------
  alpha Z        PSCENC =      1868.92618040
  Ewald energy   TEWEN  =    209719.28182834
  -Hartree energ DENC   =   -261597.65669539
  -exchange      EXHF   =         0.00000000
  -V(xc)+E(xc)   XCENC  =       998.80959921
  PAW double counting   =     46919.87437312   -47958.31232237
  entropy T*S    EENTRO =         0.00000000
  eigenvalues    EBANDS =     -4393.80028442
  atomic energy  EATOM  =     53853.58386974
  Solvation  Ediel_sol  =         0.00000000
  ---------------------------------------------------
  free energy    TOTEN  =      -589.29345136 eV

  energy without entropy =     -589.29345136  energy(sigma->0) =     -589.29345136


--------------------------------------------------------------------------------------------------------




--------------------------------------- Iteration      1(   5)  ---------------------------------------


     EDDAV:  cpu time    276.9277: real time     39.7893
 BZINTS: Fermi energy:    1.289451;  574.000000 electrons
         Band energy:-0.439734E+04;  BLOECHL correction:   -0.004064
       DOS:  cpu time      0.5733: real time      0.0829
    CHARGE:  cpu time      1.6212: real time      0.4666
    MIXING:  cpu time      0.1247: real time      0.0194
    --------------------------------------------
      LOOP:  cpu time    279.2475: real time     40.3583

 eigenvalue-minimisations  : 24896
 total energy-change (2. order) :-0.3542654E+01  (-0.3341363E+01)
 number of electron     574.0000264 magnetization      62.8972628
 augmentation part      261.1327536 magnetization      44.3912690

 DIPCOR: dipole corrections for dipol
 direction  3 min pos   236,
 dipolmoment           0.000000      0.000000     -0.000299 electrons x Angstroem
 Tr[quadrupol]     -7260.697631

 energy correction for charged system         0.000000 eV
 dipol+quadrupol energy correction           -0.000000 eV
 added-field ion interaction         -0.003920 eV  (added to PSCEN)


 Broyden mixing:
  rms(total) = 0.93578E+01    rms(broyden)= 0.93553E+01
  rms(prec ) = 0.10412E+02
  weight for this iteration     100.00

 Free energy of the ion-electron system (eV)
  ---------------------------------------------------
  alpha Z        PSCENC =      1868.92618040
  Ewald energy   TEWEN  =    209719.28182834
  -Hartree energ DENC   =   -261597.65669539
  -exchange      EXHF   =         0.00000000
  -V(xc)+E(xc)   XCENC  =       998.80959921
  PAW double counting   =     46919.87437312   -47958.31232237
  entropy T*S    EENTRO =         0.00000000
  eigenvalues    EBANDS =     -4397.34293802
  atomic energy  EATOM  =     53853.58386974
  Solvation  Ediel_sol  =         0.00000000
  ---------------------------------------------------
  free energy    TOTEN  =      -592.83610496 eV

  energy without entropy =     -592.83610496  energy(sigma->0) =     -592.83610496


--------------------------------------------------------------------------------------------------------




--------------------------------------- Iteration      1(   6)  ---------------------------------------


    POTLOK:  cpu time      7.0467: real time      1.4884
    SETDIJ:  cpu time      0.9411: real time      0.1355
     EDDAV:  cpu time    301.3149: real time     43.2750
 BZINTS: Fermi energy:    2.456075;  574.000000 electrons
         Band energy:-0.386143E+04;  BLOECHL correction:   -0.027644
       DOS:  cpu time      0.6048: real time      0.0881
    CHARGE:  cpu time      1.6446: real time      0.4533
    MIXING:  cpu time      0.1140: real time      0.0163
    --------------------------------------------
      LOOP:  cpu time    311.6661: real time     45.4566

 eigenvalue-minimisations  : 27320
 total energy-change (2. order) :-0.1453040E+03  (-0.3555136E+02)
 number of electron     574.0000282 magnetization      61.2201894
 augmentation part      261.1866287 magnetization      53.5779513

 DIPCOR: dipole corrections for dipol
 direction  3 min pos   236,
 dipolmoment           0.000000      0.000000      1.685607 electrons x Angstroem
 Tr[quadrupol]     -7284.488211

 energy correction for charged system         0.000000 eV
 dipol+quadrupol energy correction           -0.150272 eV
 added-field ion interaction         22.071556 eV  (added to PSCEN)


 Broyden mixing:
  rms(total) = 0.15141E+02    rms(broyden)= 0.15139E+02
  rms(prec ) = 0.20739E+02
  weight for this iteration     100.00

 eigenvalues of (default mixing * dielectric matrix)
  average eigenvalue GAMMA=   0.2494
  0.2494

 Free energy of the ion-electron system (eV)
  ---------------------------------------------------
  alpha Z        PSCENC =      1890.85138441
  Ewald energy   TEWEN  =    209719.28182834
  -Hartree energ DENC   =   -262306.64710725
  -exchange      EXHF   =         0.00000000
  -V(xc)+E(xc)   XCENC  =       990.70077769
  PAW double counting   =     47212.04024231   -48236.52571916
  entropy T*S    EENTRO =         0.00000000
  eigenvalues    EBANDS =     -3861.42539645
  atomic energy  EATOM  =     53853.58386974
  Solvation  Ediel_sol  =         0.00000000
  ---------------------------------------------------
  free energy    TOTEN  =      -738.14012036 eV

  energy without entropy =     -738.14012036  energy(sigma->0) =     -738.14012036


--------------------------------------------------------------------------------------------------------




--------------------------------------- Iteration      1(   7)  ---------------------------------------


    POTLOK:  cpu time      7.0484: real time      1.4684
    SETDIJ:  cpu time      0.9587: real time      0.1381
     EDDAV:  cpu time    307.5505: real time     44.1382
 BZINTS: Fermi energy:    1.972539;  574.000000 electrons
         Band energy:-0.419187E+04;  BLOECHL correction:   -0.006609
       DOS:  cpu time      0.6056: real time      0.0883
    CHARGE:  cpu time      1.6436: real time      0.4518
    MIXING:  cpu time      0.1229: real time      0.0176
    --------------------------------------------
      LOOP:  cpu time    317.9298: real time     46.3023

 eigenvalue-minimisations  : 27856
 total energy-change (2. order) : 0.3398629E+02  (-0.4095320E+02)
 number of electron     574.0000225 magnetization      59.7832320
 augmentation part      264.7341591 magnetization      52.5673827

 DIPCOR: dipole corrections for dipol
 direction  3 min pos   237,
 dipolmoment           0.000000      0.000000     -1.586589 electrons x Angstroem
 Tr[quadrupol]     -7272.962616

 energy correction for charged system         0.000000 eV
 dipol+quadrupol energy correction           -0.133136 eV
 added-field ion interaction        -27.539771 eV  (added to PSCEN)


 Broyden mixing:
  rms(total) = 0.14887E+02    rms(broyden)= 0.14885E+02
  rms(prec ) = 0.22750E+02
  weight for this iteration     100.00

 eigenvalues of (default mixing * dielectric matrix)
  average eigenvalue GAMMA=   0.2069
  0.3036  0.1101

 Free energy of the ion-electron system (eV)
  ---------------------------------------------------
  alpha Z        PSCENC =      1841.25719372
  Ewald energy   TEWEN  =    209719.28182834
  -Hartree energ DENC   =   -261893.48845722
  -exchange      EXHF   =         0.00000000
  -V(xc)+E(xc)   XCENC  =       988.58364721
  PAW double counting   =     47289.36837695   -48310.87253718
  entropy T*S    EENTRO =         0.00000000
  eigenvalues    EBANDS =     -4191.86775187
  atomic energy  EATOM  =     53853.58386974
  Solvation  Ediel_sol  =         0.00000000
  ---------------------------------------------------
  free energy    TOTEN  =      -704.15383030 eV

  energy without entropy =     -704.15383030  energy(sigma->0) =     -704.15383030


--------------------------------------------------------------------------------------------------------




--------------------------------------- Iteration      1(   8)  ---------------------------------------


    POTLOK:  cpu time      7.0248: real time      1.4626
    SETDIJ:  cpu time      0.9431: real time      0.1347
     EDDAV:  cpu time    303.7047: real time     43.6790
 BZINTS: Fermi energy:    1.334155;  574.000000 electrons
         Band energy:-0.425620E+04;  BLOECHL correction:   -0.010579
       DOS:  cpu time      0.5439: real time      0.0786
    CHARGE:  cpu time      1.5299: real time      0.4538
    MIXING:  cpu time      0.1126: real time      0.0161
    --------------------------------------------
      LOOP:  cpu time    313.8589: real time     45.8248

 eigenvalue-minimisations  : 27496
 total energy-change (2. order) : 0.1428417E+03  (-0.2069589E+02)
 number of electron     574.0000271 magnetization      58.5378296
 augmentation part      265.5541559 magnetization      44.0154257

 DIPCOR: dipole corrections for dipol
 direction  3 min pos   234,
 dipolmoment           0.000000      0.000000      0.601344 electrons x Angstroem
 Tr[quadrupol]     -7270.013009

 energy correction for charged system         0.000000 eV
 dipol+quadrupol energy correction           -0.019125 eV
 added-field ion interaction          2.746159 eV  (added to PSCEN)


 Broyden mixing:
  rms(total) = 0.90399E+01    rms(broyden)= 0.90375E+01
  rms(prec ) = 0.11235E+02
  weight for this iteration     100.00

 eigenvalues of (default mixing * dielectric matrix)
  average eigenvalue GAMMA=   0.3645
  0.5079  0.5079  0.0777

 Free energy of the ion-electron system (eV)
  ---------------------------------------------------
  alpha Z        PSCENC =      1871.65713336
  Ewald energy   TEWEN  =    209719.28182834
  -Hartree energ DENC   =   -261717.43330546
  -exchange      EXHF   =         0.00000000
  -V(xc)+E(xc)   XCENC  =       986.97794934
  PAW double counting   =     47366.51885127   -48385.69667562
  entropy T*S    EENTRO =         0.00000000
  eigenvalues    EBANDS =     -4256.20178510
  atomic energy  EATOM  =     53853.58386974
  Solvation  Ediel_sol  =         0.00000000
  ---------------------------------------------------
  free energy    TOTEN  =      -561.31213413 eV

  energy without entropy =     -561.31213413  energy(sigma->0) =     -561.31213413


--------------------------------------------------------------------------------------------------------




--------------------------------------- Iteration      1(   9)  ---------------------------------------


    POTLOK:  cpu time      7.0506: real time      1.4663
    SETDIJ:  cpu time      0.9441: real time      0.1349
     EDDAV:  cpu time    287.6594: real time     41.2300
 BZINTS: Fermi energy:    1.111232;  574.000000 electrons
         Band energy:-0.438944E+04;  BLOECHL correction:   -0.009626
       DOS:  cpu time      0.5483: real time      0.0783
    CHARGE:  cpu time      1.5714: real time      0.4579
    MIXING:  cpu time      0.1253: real time      0.0179
    --------------------------------------------
      LOOP:  cpu time    297.8991: real time     43.3853

 eigenvalue-minimisations  : 25880
 total energy-change (2. order) : 0.2049865E+02  (-0.7523094E+01)
 number of electron     574.0000257 magnetization      57.7565083
 augmentation part      268.0826223 magnetization      39.6197368

 DIPCOR: dipole corrections for dipol
 direction  3 min pos   238,
 dipolmoment           0.000000      0.000000     -0.004911 electrons x Angstroem
 Tr[quadrupol]     -7268.988318

 energy correction for charged system         0.000000 eV
 dipol+quadrupol energy correction           -0.000001 eV
 added-field ion interaction         -0.106173 eV  (added to PSCEN)


 Broyden mixing:
  rms(total) = 0.69679E+01    rms(broyden)= 0.69668E+01
  rms(prec ) = 0.74662E+01
  weight for this iteration     100.00

 eigenvalues of (default mixing * dielectric matrix)
  average eigenvalue GAMMA=   0.5708
  1.4730  0.3655  0.3655  0.0794

 Free energy of the ion-electron system (eV)
  ---------------------------------------------------
  alpha Z        PSCENC =      1868.82392610
  Ewald energy   TEWEN  =    209719.28182834
  -Hartree energ DENC   =   -261562.67842862
  -exchange      EXHF   =         0.00000000
  -V(xc)+E(xc)   XCENC  =       982.06329157
  PAW double counting   =     47574.50622032   -48586.95893846
  entropy T*S    EENTRO =         0.00000000
  eigenvalues    EBANDS =     -4389.43525697
  atomic energy  EATOM  =     53853.58386974
  Solvation  Ediel_sol  =         0.00000000
  ---------------------------------------------------
  free energy    TOTEN  =      -540.81348798 eV

  energy without entropy =     -540.81348798  energy(sigma->0) =     -540.81348798


--------------------------------------------------------------------------------------------------------




--------------------------------------- Iteration      1(  10)  ---------------------------------------


    POTLOK:  cpu time      7.0371: real time      1.4651
    SETDIJ:  cpu time      0.9436: real time      0.1348
     EDDAV:  cpu time    278.8454: real time     39.9432
 BZINTS: Fermi energy:    0.713961;  574.000000 electrons
         Band energy:-0.457984E+04;  BLOECHL correction:   -0.005565
       DOS:  cpu time      0.5892: real time      0.0852
    CHARGE:  cpu time      1.6671: real time      0.4533
    MIXING:  cpu time      0.1221: real time      0.0174
    --------------------------------------------
      LOOP:  cpu time    289.2043: real time     42.0991

 eigenvalue-minimisations  : 24760
 total energy-change (2. order) : 0.1457350E+02  (-0.4765806E+01)
 number of electron     574.0000286 magnetization      55.8874019
[...]
  206        set_dd_paw                            0.081875                            1   3
  207          m_sumb_d                              0.001326                          7   4
  208        strkin                                0.069860                            1   3
  209          m_sumb_d                              0.000523                          1   4
  210        strelo                                0.006169                            1   3
  211          m_sumb_d                              0.000290                          2   4
  212        strnlr                                9.515030                            1   3
  213          rspher_all                            0.525084                          9   4
  214          phaser                                1.526743                         90   4
  215          rpro_isp                              7.166761                         90   4
  216            fftwav_mpi                            0.202664                    16920   5
  217              fftwav                                0.178554                  16920   6
  218                fft3d                                 0.111212                16920   7
  219            rpromu_acc                            6.904101                     4320   5
  220          m_sumb_d                              0.244796                          1   4
  221        fft3d_mpi                             0.264064                           22   3
  222          fftbrc_mpi                            0.242862                         22   4
  223            fftbas_plan_mpi                       0.242825                       22   5
  224              dfftw_execute                         0.067569                     66   6
  225              map_forward                           0.064057                     20   6
  226                map_gather                            0.017381                   10   7
  227                m_alltoallv_z                         0.036647                   10   7
  228                map_scatter                           0.009951                   10   7
  229              map_backward                          0.108875                     24   6
  230                map_gather                            0.010126                   12   7
  231                m_alltoallv_z                         0.067589                   12   7
  232                map_scatter                           0.031088                   12   7
  233        m_sumb_d                              0.000054                            5   3
  234        forhar                                0.094943                            2   3
  235          m_sumb_d                              0.003097                          2   4
  236        strehar                               0.004025                            1   3
  237          m_sumb_d                              0.000302                          1   4
  238        chggra                                0.084822                            1   3
  239          fft3d_mpi                             0.080444                          3   4
  240            fftbrc_mpi                            0.079113                        3   5
  241              fftbas_plan_mpi                       0.079109                      3   6
  242                map_forward                           0.038654                    4   7
  243                  map_gather                            0.000008                  2   8
  244                  m_alltoallv_z                         0.038622                  2   8
  245                  map_scatter                           0.000008                  2   8
  246                map_backward                          0.000021                    2   7
  247                  map_gather                            0.000002                  1   8
  248                  m_alltoallv_z                         0.000014                  1   8
  249                  map_scatter                           0.000001                  1   8
  250          m_sumb_d                              0.000022                          2   4
  251          pothar                                0.000719                          1   4
  252            m_sumb_d                              0.000005                        1   5
  253        brmix                                 0.111929                            1   3
  254          m_sumb_d                              0.000075                          6   4
  255          brpre                                 0.000244                          2   4
  256          setg0                                 0.006276                          1   4
  257          broyd                                 0.100056                          1   4
  258            m_sumb_d                              0.005577                       48   5
  259            brget                                 0.006716                      214   5
  260            brsav                                 0.004605                       46   5
  261        m_bcast_d                             0.000051                            2   3
  262      potlok                                1.478795                              1   2
  263        fft3d_mpi                             0.289794                           26   3
  264          fftbrc_mpi                            0.261334                         26   4
  265            fftbas_plan_mpi                       0.261309                       26   5
  266              dfftw_execute                         0.076765                     78   6
  267              map_forward                           0.081733                     28   6
  268                map_gather                            0.021533                   16   7
  269                m_alltoallv_z                         0.047603                   16   7
  270                map_scatter                           0.012496                   16   7
  271              map_backward                          0.100151                     24   6
  272                map_gather                            0.010049                   12   7
  273                m_alltoallv_z                         0.060663                   12   7
  274                map_scatter                           0.029353                   12   7
  275        m_sumb_d                              0.000329                            8   3
  276        fewald                                0.000088                            2   3
  277          rsp                                   0.000055                          2   4
  278          rcp                                   0.000028                          2   4
  279        pothar                                0.008720                            1   3
  280          m_sumb_d                              0.001184                          1   4
  281        m_bcast_d                             0.003525                            2   3
  282      potlok_metagga                        0.000001                              1   2
  283      set_dd_magatom                        0.000003                              1   2
  284      set_dd_paw                            0.081900                              1   2
  285        m_sumb_d                              0.001394                            7   3
  286      m_bcast_d                             0.000033                              2   2
  287      fftwav_mpi                           20.746465                           5640   2
  288        fftwav                               20.703585                         5640   3
  289          fft3d                                14.597713                       5640   4
  290      densta                                0.111093                              1   2
 
 Flat profile
 ============
 
             routine name                   CPU           calls
 ---------------------------------------------------------------
 eddav                                1140.472741          56
 lapack                                250.083570      216832
 m_sumb_d                              236.530880      664376
 rpromu_acc                            112.194111      170432
 hamiltmu                               96.018163      216832
 total_time                             83.807048           1
 potlok                                 61.547710          53
 newband                                51.746156      217952
 racc0mu_acc                            50.534770      216832
 m_alltoall_d                           43.618991     3150328
 fft3d                                  32.809000     1300900
 orth1                                  28.096205      650516
 raccmu_                                24.606034      216832
 phaser                                 21.137760        1250
 overl_mu                               18.409088      216832
 w1_copy                                14.497346     1300992
 redis_pw                               12.995257     1197992
 fftwav                                 12.869432      867236
 ggemm                                  12.482186      269472
 m_bcast_z                               8.164277      224352
 redis_proj                              7.549121     1526396
 m_alltoallv_z                           6.585787        1866
 overl                                   5.757083      762068
 dfftw_execute                           4.399490        4899
 set_dd_paw                              4.353773          54
 densta                                  4.352474          57
 setdij_                                 4.264559          80
 lincom                                  3.574629        1140
 map_scatter                             3.128151        1866
 augmentation_charge                     2.679414          52
 eccp                                    2.286758      105280
 fft3d_mpi                               2.191427      435300
 m_bcast_d                               2.186530      433774
 kinhamil                                1.980155      433664
 broyd                                   1.910281          52
 fftext_mpi                              1.878048      433664
 map_gather                              1.645854        1866
 vhamil                                  1.552381      433664
 fftwav_mpi                              1.471344      867236
 apply_precond                           1.435451      328384
 depsum                                  1.286786          52
 elmin                                   1.261949           1
 force_and_stress                        1.256023           1
 orthch                                  0.815197           1
 setup_precond                           0.779142      105280
 rspher_all                              0.768393          14
 fftbas_plan_mpi                         0.652476        1636
 init_hip                                0.417481           1
 pothar                                  0.399874          54
 choleski                                0.356194          20
 setg0                                   0.334916          54
 brmix                                   0.307815          52
 soft_charge                             0.290758          52
 brget                                   0.215520        7101
 pw_charge                               0.198934       75108
 proall                                  0.181276           1
 set_charge                              0.176924          52
 w1_projall                              0.162312      164192
 brsav                                   0.150606        1785
 forhar                                  0.091846           2
 rpro_isp                                0.086945         130
 truncate_high_frequency_w1              0.082608      538944
 brgrid                                  0.076032           1
 strkin                                  0.069337           1
 strnlr                                  0.051646           1
 forloc                                  0.046842           1
 stufak                                  0.044375           1
 fft_gq                                  0.038587          52
 fornlr                                  0.016860           1
 brpre                                   0.012989         104
 inisym                                  0.011760           1
 rsp                                     0.007285         107
 map_backward                            0.006246        1726
 strelo                                  0.005879           1
 map_forward                             0.005841        1546
 strehar                                 0.003723           1
 chggra                                  0.003637           1
 hip_hipfft_makeplan                     0.002556           6
 fftbrc_mpi                              0.001979        1636
 rcp                                     0.001815         107
 fewald                                  0.001766         107
 set_dd_magatom                          0.000395          54
 vectorpot                               0.000337          53
 fordep                                  0.000229           1
 hip_init_hipblas                        0.000193           1
 hip_init_rocsolver                      0.000068           1
 crpa_reader                             0.000064           1
 potlok_metagga                          0.000042          53
 posmap                                  0.000017           2
 rotate_active_occupied_orbital          0.000007           1
 hip_hipfft_makeplans                    0.000004           3
 redis_pw_over_bands                     0.000001           1
 ---------------------------------------------------------------
  summed up times    2388.48792505264     
 
 Accumulative profile
 ====================
 
             routine name                   CPU           calls
 ---------------------------------------------------------------
 total_time                           2388.487925           1
 elmin                                2251.065098           1
 eddav                                2135.954304          56
 lapack                                250.083570      216832
 m_sumb_d                              236.530880      664376
 hamiltmu                              201.104432      216832
 rpromu_acc                            112.194111      170432
 w1_projall                            102.369313      164192
 raccmu_                                93.549893      216832
 potlok                                 77.711389          53
 newband                                64.211259      217952
 racc0mu_acc                            50.534770      216832
 m_alltoall_d                           43.618991     3150328
 fftwav_mpi                             41.287842      867236
 fftwav                                 39.816497      867236
 redis_pw                               34.976243     1197992
 fft3d                                  32.809000     1300900
 redis_proj                             29.187126     1526396
 orth1                                  28.096205      650516
 fft3d_mpi                              24.479186      435300
 set_charge                             23.594560          52
 phaser                                 21.137760        1250
 overl_mu                               18.409088      216832
 soft_charge                            18.027678          52
 force_and_stress                       16.575332           1
 fftbrc_mpi                             16.425824        1636
 fftbas_plan_mpi                        16.423845        1636
 w1_copy                                14.497346     1300992
 ggemm                                  12.482186      269472
 rpro_isp                               10.559007         130
 kinhamil                                9.983994      433664
 strnlr                                  9.515030           1
 m_bcast_z                               8.164277      224352
 fftext_mpi                              8.003839      433664
 map_backward                            6.746748        1726
 m_alltoallv_z                           6.585787        1866
 overl                                   5.757083      762068
 orthch                                  5.282247           1
 map_forward                             4.625131        1546
 set_dd_paw                              4.410541          54
 dfftw_execute                           4.399490        4899
 densta                                  4.352474          57
 setdij_                                 4.309028          80
 augmentation_charge                     4.037127          52
 lincom                                  3.574629        1140
 brmix                                   3.283889          52
 fornlr                                  3.190526           1
 map_scatter                             3.128151        1866
 broyd                                   2.609070          52
 eccp                                    2.286758      105280
 m_bcast_d                               2.186530      433774
 map_gather                              1.645854        1866
 vhamil                                  1.552381      433664
 apply_precond                           1.435451      328384
 proall                                  1.369919           1
 depsum                                  1.352831          52
 setup_precond                           0.779142      105280
 rspher_all                              0.768393          14
 fft_gq                                  0.714557          52
 pothar                                  0.510186          54
 init_hip                                0.417481           1
 choleski                                0.356194          20
 setg0                                   0.334916          54
 fordep                                  0.322526           1
 brget                                   0.215520        7101
 pw_charge                               0.198934       75108
 brsav                                   0.150606        1785
 forhar                                  0.094943           2
 chggra                                  0.084822           1
 truncate_high_frequency_w1              0.082608      538944
 brgrid                                  0.076032           1
 strkin                                  0.069860           1
 forloc                                  0.049794           1
 stufak                                  0.044375           1
 brpre                                   0.012989         104
 inisym                                  0.011777           1
 fewald                                  0.010971         107
 rsp                                     0.007285         107
 strelo                                  0.006169           1
 strehar                                 0.004025           1
 hip_hipfft_makeplans                    0.002560           3
 hip_hipfft_makeplan                     0.002556           6
 rcp                                     0.001815         107
 set_dd_magatom                          0.000395          54
 vectorpot                               0.000337          53
 hip_init_hipblas                        0.000193           1
 hip_init_rocsolver                      0.000068           1
 crpa_reader                             0.000064           1
 potlok_metagga                          0.000042          53
 posmap                                  0.000017           2
 rotate_active_occupied_orbital          0.000007           1
 redis_pw_over_bands                     0.000001           1
 ---------------------------------------------------------------
 
Profiling took   4.623193  1.897046  0.002879  0.002759 seconds
Profiling took   2.781470 seconds
