srun: ROUTE: split_hostlist: hl=b02r1n06 tree_width 0
 running on    4 total cores
 distrk:  each k-point on    4 cores,    1 groups
 distr:  one band on    1 cores,    4 groups
 HIP runtime initialized ...    4 DCUs will be used
 Created    4 streams on each DCU
 vasp.6.3.2 27Jun22 (build Mar 15 2023 15:45:48) complex                        
  
 POSCAR found type information on POSCAR FeCrPb
 POSCAR found :  3 types and      64 ions
 Reading from existing POTCAR
 -----------------------------------------------------------------------------
|                                                                             |
|           W    W    AA    RRRRR   N    N  II  N    N   GGGG   !!!           |
|           W    W   A  A   R    R  NN   N  II  NN   N  G    G  !!!           |
|           W    W  A    A  R    R  N N  N  II  N N  N  G       !!!           |
|           W WW W  AAAAAA  RRRRR   N  N N  II  N  N N  G  GGG   !            |
|           WW  WW  A    A  R   R   N   NN  II  N   NN  G    G                |
|           W    W  A    A  R    R  N    N  II  N    N   GGGG   !!!           |
|                                                                             |
|     You use a magnetic or noncollinear calculation, but did not specify     |
|     the initial magnetic moment with the MAGMOM tag. Note that a            |
|     default of 1 will be used for all atoms. This ferromagnetic setup       |
|     may break the symmetry of the crystal, in particular it may rule        |
|     out finding an antiferromagnetic solution. Thence, we recommend         |
|     setting the initial magnetic moment manually or verifying carefully     |
|     that this magnetic setup is desired.                                    |
|                                                                             |
 -----------------------------------------------------------------------------

 scaLAPACK will be used selectively (only on CPU)
 Reading from existing POTCAR
 LDA part: xc-table for Pade appr. of Perdew
 POSCAR found type information on POSCAR FeCrPb
 POSCAR found :  3 types and      64 ions
 POSCAR, INCAR and KPOINTS ok, starting setup
 FFT: planning ... GRIDC
 FFT: planning ... GRID_SOFT
 FFT: planning ... GRID
 WAVECAR not read
 entering main loop
       N       E                     dE             d eps       ncg     rms          rms(c)
DAV:   1     0.571051561032E+04    0.57105E+04   -0.24464E+05 15904   0.145E+03
DAV:   2    -0.590263159209E+02   -0.57695E+04   -0.55695E+04 15040   0.426E+02
DAV:   3    -0.529263257146E+03   -0.47024E+03   -0.41788E+03 15496   0.165E+02
DAV:   4    -0.589293451362E+03   -0.60030E+02   -0.56134E+02 26440   0.454E+01
DAV:   5    -0.592836104960E+03   -0.35427E+01   -0.33414E+01 24896   0.108E+01    0.936E+01
DAV:   6    -0.738140120364E+03   -0.14530E+03   -0.35551E+02 27320   0.869E+01    0.151E+02
DAV:   7    -0.704153830296E+03    0.33986E+02   -0.40953E+02 27856   0.115E+02    0.149E+02
DAV:   8    -0.561312134131E+03    0.14284E+03   -0.20696E+02 27496   0.787E+01    0.904E+01
DAV:   9    -0.540813487982E+03    0.20499E+02   -0.75231E+01 25880   0.387E+01    0.697E+01
DAV:  10    -0.526239987366E+03    0.14574E+02   -0.47658E+01 24760   0.280E+01    0.626E+01
DAV:  11    -0.506233487738E+03    0.20006E+02   -0.78465E+01 21832   0.339E+01    0.480E+01
DAV:  12    -0.501361715534E+03    0.48718E+01   -0.33601E+01 21312   0.204E+01    0.360E+01
DAV:  13    -0.501515229605E+03   -0.15351E+00   -0.49038E+00 21520   0.853E+00    0.342E+01
DAV:  14    -0.501375085123E+03    0.14014E+00   -0.65877E-01 24120   0.247E+00    0.352E+01
DAV:  15    -0.503000099772E+03   -0.16250E+01   -0.93547E-01 26848   0.422E+00    0.359E+01
DAV:  16    -0.505240260482E+03   -0.22402E+01   -0.43069E+00 26240   0.774E+00    0.317E+01
DAV:  17    -0.507927654074E+03   -0.26874E+01   -0.51347E+00 24936   0.743E+00    0.264E+01
DAV:  18    -0.509825675636E+03   -0.18980E+01   -0.41598E+00 26216   0.766E+00    0.259E+01
DAV:  19    -0.510342283955E+03   -0.51661E+00   -0.13356E+00 23952   0.347E+00    0.230E+01
DAV:  20    -0.510833445389E+03   -0.49116E+00   -0.53703E-01 25632   0.246E+00    0.216E+01
DAV:  21    -0.511328060073E+03   -0.49461E+00   -0.89160E-01 25992   0.289E+00    0.199E+01
DAV:  22    -0.511713623106E+03   -0.38556E+00   -0.18441E+00 26056   0.478E+00    0.166E+01
DAV:  23    -0.511913043178E+03   -0.19942E+00   -0.97540E-01 26672   0.423E+00    0.152E+01
DAV:  24    -0.511991998810E+03   -0.78956E-01   -0.23351E-01 22304   0.147E+00    0.148E+01
DAV:  25    -0.512212090008E+03   -0.22009E+00   -0.23041E-01 26672   0.152E+00    0.145E+01
DAV:  26    -0.512695327305E+03   -0.48324E+00   -0.95133E-01 27088   0.380E+00    0.123E+01
DAV:  27    -0.513228578346E+03   -0.53325E+00   -0.15820E+00 25648   0.320E+00    0.947E+00
DAV:  28    -0.513489727942E+03   -0.26115E+00   -0.91140E-01 26192   0.286E+00    0.809E+00
DAV:  29    -0.513502660665E+03   -0.12933E-01   -0.25696E-01 24248   0.224E+00    0.690E+00
DAV:  30    -0.513630516920E+03   -0.12786E+00   -0.57305E-01 26000   0.204E+00    0.595E+00
DAV:  31    -0.513650260790E+03   -0.19744E-01   -0.27625E-01 24536   0.145E+00    0.519E+00
DAV:  32    -0.513660319152E+03   -0.10058E-01   -0.83982E-02 25144   0.115E+00    0.412E+00
DAV:  33    -0.513684365133E+03   -0.24046E-01   -0.11910E-01 26240   0.114E+00    0.339E+00
DAV:  34    -0.513702508617E+03   -0.18143E-01   -0.82126E-02 25056   0.837E-01    0.284E+00
DAV:  35    -0.513718225406E+03   -0.15717E-01   -0.53470E-02 25560   0.772E-01    0.226E+00
DAV:  36    -0.513727492105E+03   -0.92667E-02   -0.41089E-02 26400   0.699E-01    0.188E+00
DAV:  37    -0.513732006027E+03   -0.45139E-02   -0.34499E-02 24888   0.583E-01    0.167E+00
DAV:  38    -0.513733854873E+03   -0.18488E-02   -0.10031E-02 24456   0.378E-01    0.138E+00
DAV:  39    -0.513732963476E+03    0.89140E-03   -0.17159E-02 26272   0.473E-01    0.107E+00
DAV:  40    -0.513733173527E+03   -0.21005E-03   -0.10996E-02 24368   0.284E-01    0.873E-01
DAV:  41    -0.513733798102E+03   -0.62457E-03   -0.60726E-03 26320   0.264E-01    0.740E-01
DAV:  42    -0.513735095313E+03   -0.12972E-02   -0.30184E-03 24632   0.199E-01    0.632E-01
DAV:  43    -0.513735785128E+03   -0.68982E-03   -0.20785E-03 25544   0.150E-01    0.501E-01
DAV:  44    -0.513736228614E+03   -0.44349E-03   -0.33563E-03 26408   0.165E-01    0.352E-01
DAV:  45    -0.513736451854E+03   -0.22324E-03   -0.11072E-03 24016   0.117E-01    0.282E-01
DAV:  46    -0.513736380601E+03    0.71253E-04   -0.66224E-04 26136   0.778E-02    0.236E-01
DAV:  47    -0.513736419334E+03   -0.38733E-04   -0.57012E-04 25584   0.711E-02    0.211E-01
DAV:  48    -0.513736542808E+03   -0.12347E-03   -0.29073E-04 25072   0.609E-02    0.162E-01
DAV:  49    -0.513736723617E+03   -0.18081E-03   -0.32623E-04 25440   0.528E-02    0.126E-01
DAV:  50    -0.513736759268E+03   -0.35651E-04   -0.10922E-04 18248   0.377E-02    0.931E-02
DAV:  51    -0.513736780564E+03   -0.21296E-04   -0.13904E-04 21624   0.335E-02    0.729E-02
DAV:  52    -0.513736765754E+03    0.14810E-04   -0.48824E-05 16384   0.220E-02    0.576E-02
DAV:  53    -0.513736724027E+03    0.41727E-04   -0.34257E-05 11280   0.200E-02    0.402E-02
DAV:  54    -0.513736708418E+03    0.15609E-04   -0.47418E-05 15304   0.169E-02    0.331E-02
DAV:  55    -0.513736731322E+03   -0.22904E-04   -0.12604E-05  9256   0.899E-03    0.284E-02
DAV:  56    -0.513736730405E+03    0.91772E-06   -0.92466E-06  8800   0.130E-02
   1 F= -.51373673E+03 E0= -.51373673E+03  d E =0.000000E+00  mag=   104.1377
 writing wavefunctions
 -----------------------------------------------------------------------------
|                                                                             |
|           W    W    AA    RRRRR   N    N  II  N    N   GGGG   !!!           |
|           W    W   A  A   R    R  NN   N  II  NN   N  G    G  !!!           |
|           W    W  A    A  R    R  N N  N  II  N N  N  G       !!!           |
|           W WW W  AAAAAA  RRRRR   N  N N  II  N  N N  G  GGG   !            |
|           WW  WW  A    A  R   R   N   NN  II  N   NN  G    G                |
|           W    W  A    A  R    R  N    N  II  N    N   GGGG   !!!           |
|                                                                             |
|     Tetrahedron method does not include variations of the Fermi             |
|     occupations, so forces and stress will be inaccurate. We suggest        |
|     using a different smearing scheme ISMEAR = 1 or 2 for metals in         |
|     relaxations.                                                            |
|                                                                             |
 -----------------------------------------------------------------------------

 PROFILE, used timers:     290
