<?xml version="1.0" encoding="ISO-8859-1"?>
<modeling>
 <generator>
  <i name="program" type="string">vasp </i>
  <i name="version" type="string">6.3.2  </i>
  <i name="subversion" type="string">27Jun22 (build Mar 15 2023 15:45:48) complex                          parallel </i>
  <i name="platform" type="string">LinuxIFC </i>
  <i name="date" type="string">2025 02 10 </i>
  <i name="time" type="string">22:45:08 </i>
 </generator>
 <incar>
  <i type="string" name="SYSTEM">ni3al</i>
  <i type="int" name="ISTART">     0</i>
  <i type="string" name="PREC">Accurate</i>
  <i type="string" name="ALGO">Normal</i>
  <i type="int" name="ISPIN">     2</i>
  <i type="int" name="IMIX">     4</i>
  <i name="AMIX">      0.05000000</i>
  <i name="BMIX">      0.00010000</i>
  <i name="AMIN">      0.01000000</i>
  <i type="int" name="ICHARG">     2</i>
  <i type="int" name="NELM">   150</i>
  <i type="int" name="IBRION">    -1</i>
  <i name="EDIFF">      0.00001000</i>
  <i type="int" name="NSW">     0</i>
  <i type="int" name="ISIF">     2</i>
  <i name="ENCUT">    450.00000000</i>
  <i type="string" name="LREAL">Auto</i>
  <i type="int" name="ISMEAR">    -5</i>
  <i name="SIGMA">      0.10000000</i>
  <i type="int" name="LMAXMIX">     4</i>
  <i type="logical" name="LWAVE"> T  </i>
  <i type="logical" name="LCHARG"> T  </i>
  <i type="logical" name="LELF"> T  </i>
  <i type="logical" name="LDIPOL"> T  </i>
  <i type="int" name="IDIPOL">     3</i>
 </incar>
 <primitive_cell>
  <structure name="primitive_cell" >
   <crystal>
    <varray name="basis" >
     <v>       8.53269958       0.00000000       0.00000000 </v>
     <v>      -0.00051933       8.49699972       0.00000000 </v>
     <v>       0.00000000       0.00000000      23.59499931 </v>
    </varray>
    <i name="volume">   1710.69280467 </i>
    <varray name="rec_basis" >
     <v>       0.11719620       0.00000716       0.00000000 </v>
     <v>       0.00000000       0.11768860       0.00000000 </v>
     <v>       0.00000000       0.00000000       0.04238186 </v>
    </varray>
   </crystal>
   <varray name="positions" >
    <v>       0.00086000       0.99993000       0.24271000 </v>
    <v>       0.16626769       0.16575644       0.30369500 </v>
    <v>       0.50120145       0.16676079       0.30764167 </v>
    <v>       0.66822000       0.00107000       0.24272000 </v>
    <v>       0.83374116       0.16946272       0.30381090 </v>
    <v>       0.00044000       0.33497000       0.24240000 </v>
    <v>       0.16640462       0.50254777       0.30362740 </v>
    <v>       0.33469000       0.33305000       0.24267000 </v>
    <v>       0.50156301       0.49715214       0.30349304 </v>
    <v>       0.83495085       0.50423917       0.30240659 </v>
    <v>       0.16761919       0.83424967       0.30449006 </v>
    <v>       0.33342000       0.66555000       0.24261000 </v>
    <v>       0.83724831       0.83226544       0.30305123 </v>
    <v>       0.00064000       0.00119000       0.00199000 </v>
    <v>       0.99696510       0.00589455       0.36147297 </v>
    <v>       0.16843000       0.16962000       0.06269000 </v>
    <v>       0.33460000       0.00297000       0.00254000 </v>
    <v>       0.33027751       0.99813463       0.36272351 </v>
    <v>       0.50463000       0.16850000       0.06120000 </v>
    <v>       0.83272000       0.16670000       0.06193000 </v>
    <v>       0.00004000       0.33467000       0.00213000 </v>
    <v>       0.99914268       0.33280193       0.36059210 </v>
    <v>       0.16757000       0.49895000       0.06268000 </v>
    <v>       0.50099000       0.49896000       0.06206000 </v>
    <v>       0.83393000       0.50234000       0.06235000 </v>
    <v>       0.00121000       0.66785000       0.00188000 </v>
    <v>       0.99853816       0.66544501       0.36057215 </v>
    <v>       0.16792000       0.83462000       0.06228000 </v>
    <v>       0.33437000       0.66664000       0.00225000 </v>
    <v>       0.34066409       0.66409783       0.36146322 </v>
    <v>       0.50152000       0.83563000       0.06217000 </v>
    <v>       0.66753000       0.66705000       0.00175000 </v>
    <v>       0.66384397       0.66675293       0.36027299 </v>
    <v>       0.83293000       0.83584000       0.06235000 </v>
    <v>       0.00121000       0.00098000       0.12225000 </v>
    <v>       0.16700000       0.16811000       0.18239000 </v>
    <v>       0.33470000       0.00227000       0.12192000 </v>
    <v>       0.50174000       0.16716000       0.18263000 </v>
    <v>       0.83421000       0.16639000       0.18283000 </v>
    <v>       0.16964000       0.49868000       0.18209000 </v>
    <v>       0.50219000       0.50081000       0.18317000 </v>
    <v>       0.66741000       0.33395000       0.12233000 </v>
    <v>       0.83134000       0.50253000       0.18283000 </v>
    <v>       0.00132000       0.66795000       0.12253000 </v>
    <v>       0.16898000       0.83509000       0.18243000 </v>
    <v>       0.33446000       0.66703000       0.12223000 </v>
    <v>       0.49971000       0.83538000       0.18278000 </v>
    <v>       0.66698000       0.66840000       0.12259000 </v>
    <v>       0.83488000       0.83403000       0.18294000 </v>
    <v>       0.33558000       0.99863000       0.24353000 </v>
    <v>       0.66801000       0.33262000       0.24229000 </v>
    <v>       0.00448000       0.66739000       0.24217000 </v>
    <v>       0.49655519       0.83553756       0.30220330 </v>
    <v>       0.66521000       0.67351000       0.24327000 </v>
    <v>       0.66620000       0.99680000       0.00000000 </v>
    <v>       0.67593329       0.98953029       0.36299016 </v>
    <v>       0.33213000       0.33386000       0.00135000 </v>
    <v>       0.32407605       0.33930227       0.36512252 </v>
    <v>       0.67040000       0.33673000       0.00321000 </v>
    <v>       0.67646327       0.34272561       0.36667116 </v>
    <v>       0.66728000       0.99998000       0.12246000 </v>
    <v>       0.99806000       0.33495000       0.12235000 </v>
    <v>       0.33675000       0.33238000       0.12261000 </v>
    <v>       0.49908809       0.15936828       0.44487919 </v>
   </varray>
  </structure>
  <varray name="primitive_index" >
   <v type="int" >        1 </v>
   <v type="int" >        2 </v>
   <v type="int" >        3 </v>
   <v type="int" >        4 </v>
   <v type="int" >        5 </v>
   <v type="int" >        6 </v>
   <v type="int" >        7 </v>
   <v type="int" >        8 </v>
   <v type="int" >        9 </v>
   <v type="int" >       10 </v>
   <v type="int" >       11 </v>
   <v type="int" >       12 </v>
   <v type="int" >       13 </v>
   <v type="int" >       14 </v>
   <v type="int" >       15 </v>
   <v type="int" >       16 </v>
   <v type="int" >       17 </v>
   <v type="int" >       18 </v>
   <v type="int" >       19 </v>
   <v type="int" >       20 </v>
   <v type="int" >       21 </v>
   <v type="int" >       22 </v>
   <v type="int" >       23 </v>
   <v type="int" >       24 </v>
   <v type="int" >       25 </v>
   <v type="int" >       26 </v>
   <v type="int" >       27 </v>
   <v type="int" >       28 </v>
   <v type="int" >       29 </v>
   <v type="int" >       30 </v>
   <v type="int" >       31 </v>
   <v type="int" >       32 </v>
   <v type="int" >       33 </v>
   <v type="int" >       34 </v>
   <v type="int" >       35 </v>
   <v type="int" >       36 </v>
   <v type="int" >       37 </v>
   <v type="int" >       38 </v>
   <v type="int" >       39 </v>
   <v type="int" >       40 </v>
   <v type="int" >       41 </v>
   <v type="int" >       42 </v>
   <v type="int" >       43 </v>
   <v type="int" >       44 </v>
   <v type="int" >       45 </v>
   <v type="int" >       46 </v>
   <v type="int" >       47 </v>
   <v type="int" >       48 </v>
   <v type="int" >       49 </v>
   <v type="int" >       50 </v>
   <v type="int" >       51 </v>
   <v type="int" >       52 </v>
   <v type="int" >       53 </v>
   <v type="int" >       54 </v>
   <v type="int" >       55 </v>
   <v type="int" >       56 </v>
   <v type="int" >       57 </v>
   <v type="int" >       58 </v>
   <v type="int" >       59 </v>
   <v type="int" >       60 </v>
   <v type="int" >       61 </v>
   <v type="int" >       62 </v>
   <v type="int" >       63 </v>
   <v type="int" >       64 </v>
  </varray>
 </primitive_cell>
 <kpoints>
  <generation param="Gamma">
   <v type="int" name="divisions">       4        4        1 </v>
   <v name="usershift">      0.00000000       0.00000000       0.00000000 </v>
   <v name="genvec1">      0.25000000       0.00000000       0.00000000 </v>
   <v name="genvec2">      0.00000000       0.25000000       0.00000000 </v>
   <v name="genvec3">      0.00000000       0.00000000       1.00000000 </v>
   <v name="shift">      0.00000000       0.00000000       0.00000000 </v>
  </generation>
  <varray name="kpointlist" >
   <v>       0.00000000       0.00000000       0.00000000 </v>
   <v>       0.25000000       0.00000000       0.00000000 </v>
   <v>       0.50000000       0.00000000       0.00000000 </v>
   <v>       0.00000000       0.25000000       0.00000000 </v>
   <v>       0.25000000       0.25000000       0.00000000 </v>
   <v>       0.50000000       0.25000000       0.00000000 </v>
   <v>      -0.25000000       0.25000000       0.00000000 </v>
   <v>       0.00000000       0.50000000       0.00000000 </v>
   <v>       0.25000000       0.50000000       0.00000000 </v>
   <v>       0.50000000       0.50000000       0.00000000 </v>
  </varray>
  <varray name="weights" >
   <v>       0.06250000 </v>
   <v>       0.12500000 </v>
   <v>       0.06250000 </v>
   <v>       0.12500000 </v>
   <v>       0.12500000 </v>
   <v>       0.12500000 </v>
   <v>       0.12500000 </v>
   <v>       0.06250000 </v>
   <v>       0.12500000 </v>
   <v>       0.06250000 </v>
  </varray>
  <varray name="tetrahedronlist"  type="int" >
   <v type="int" >        2        4        8        9        9 </v>
   <v type="int" >        2        4        7        9        9 </v>
   <v type="int" >        2        4        7        7        9 </v>
   <v type="int" >        2        4        8        8        9 </v>
   <v type="int" >        2        4        4        8        9 </v>
   <v type="int" >        2        4        4        7        9 </v>
   <v type="int" >        2        4        5        5        8 </v>
   <v type="int" >        2        5        5        8        9 </v>
   <v type="int" >        2        5        8        9        9 </v>
   <v type="int" >        2        4        4        5        8 </v>
   <v type="int" >        2        4        5        8        8 </v>
   <v type="int" >        2        5        8        8        9 </v>
   <v type="int" >        2        1        2        2        4 </v>
   <v type="int" >        2        2        2        4        5 </v>
   <v type="int" >        2        2        4        5        5 </v>
   <v type="int" >        2        1        1        2        4 </v>
   <v type="int" >        2        1        2        4        4 </v>
   <v type="int" >        2        2        4        4        5 </v>
   <v type="int" >        2        1        4        7        7 </v>
   <v type="int" >        2        1        2        7        7 </v>
   <v type="int" >        2        1        2        2        7 </v>
   <v type="int" >        2        1        4        4        7 </v>
   <v type="int" >        2        1        1        4        7 </v>
   <v type="int" >        2        1        1        2        7 </v>
   <v type="int" >        2        7        9       10       10 </v>
   <v type="int" >        2        6        7       10       10 </v>
   <v type="int" >        2        6        6        7       10 </v>
   <v type="int" >        2        7        9        9       10 </v>
   <v type="int" >        2        7        7        9       10 </v>
   <v type="int" >        2        6        7        7       10 </v>
   <v type="int" >        2        5        6        6        9 </v>
   <v type="int" >        2        6        6        9       10 </v>
   <v type="int" >        2        6        9       10       10 </v>
   <v type="int" >        2        5        5        6        9 </v>
   <v type="int" >        2        5        6        9        9 </v>
   <v type="int" >        2        6        9        9       10 </v>
   <v type="int" >        2        2        3        3        5 </v>
   <v type="int" >        2        3        3        5        6 </v>
   <v type="int" >        2        3        5        6        6 </v>
   <v type="int" >        2        2        2        3        5 </v>
   <v type="int" >        2        2        3        5        5 </v>
   <v type="int" >        2        3        5        5        6 </v>
   <v type="int" >        2        2        6        6        7 </v>
   <v type="int" >        2        2        3        6        6 </v>
   <v type="int" >        2        2        3        3        6 </v>
   <v type="int" >        2        2        6        7        7 </v>
   <v type="int" >        2        2        2        6        7 </v>
   <v type="int" >        2        2        2        3        6 </v>
  </varray>
  <i name="volumeweight">      0.01041667 </i>
 </kpoints>
 <parameters>
  <separator name="general" >
   <i type="string" name="SYSTEM">ni3al</i>
   <i type="logical" name="LCOMPAT"> F  </i>
  </separator>
  <separator name="electronic" >
   <i type="string" name="PREC">accura</i>
   <i name="ENMAX">    450.00000000</i>
   <i name="ENAUG">    519.42400000</i>
   <i name="EDIFF">      0.00001000</i>
   <i type="int" name="IALGO">    38</i>
   <i type="int" name="IWAVPR">    10</i>
   <i type="int" name="NBANDS">   376</i>
   <i type="int" name="NBANDSLOW">    -1</i>
   <i type="int" name="NBANDSHIGH">    -1</i>
   <i name="NELECT">    574.00000000</i>
   <i type="int" name="TURBO">     0</i>
   <i type="int" name="IRESTART">     0</i>
   <i type="int" name="NREBOOT">     0</i>
   <i type="int" name="NMIN">     0</i>
   <i name="EREF">      0.00000000</i>
   <separator name="electronic smearing" >
    <i type="int" name="ISMEAR">    -5</i>
    <i name="SIGMA">      0.10000000</i>
    <i name="KSPACING">      0.50000000</i>
    <i type="logical" name="KGAMMA"> T  </i>
    <i type="logical" name="KBLOWUP"> T  </i>
   </separator>
   <separator name="electronic projectors" >
    <i type="logical" name="LREAL"> T  </i>
    <v name="ROPT">     -0.00025000     -0.00025000     -0.00025000</v>
    <i type="int" name="LMAXPAW">  -100</i>
    <i type="int" name="LMAXMIX">     4</i>
    <i type="logical" name="NLSPLINE"> F  </i>
   </separator>
   <separator name="electronic startup" >
    <i type="int" name="ISTART">     0</i>
    <i type="int" name="ICHARG">     2</i>
    <i type="int" name="INIWAV">     1</i>
   </separator>
   <separator name="electronic spin" >
    <i type="int" name="ISPIN">     2</i>
    <i type="logical" name="LNONCOLLINEAR"> F  </i>
    <v name="MAGMOM">      1.00000000      1.00000000      1.00000000      1.00000000      1.00000000      1.00000000      1.00000000      1.00000000      1.00000000      1.00000000      1.00000000      1.00000000      1.00000000      1.00000000      1.00000000      1.00000000      1.00000000      1.00000000      1.00000000      1.00000000
      1.00000000      1.00000000      1.00000000      1.00000000      1.00000000      1.00000000      1.00000000      1.00000000      1.00000000      1.00000000      1.00000000      1.00000000      1.00000000      1.00000000      1.00000000      1.00000000      1.00000000      1.00000000      1.00000000      1.00000000
      1.00000000      1.00000000      1.00000000      1.00000000      1.00000000      1.00000000      1.00000000      1.00000000      1.00000000      1.00000000      1.00000000      1.00000000      1.00000000      1.00000000      1.00000000      1.00000000      1.00000000      1.00000000      1.00000000      1.00000000
      1.00000000      1.00000000      1.00000000      1.00000000</v>
    <i name="NUPDOWN">     -1.00000000</i>
    <i type="logical" name="LSORBIT"> F  </i>
    <v name="SAXIS">      0.00000000      0.00000000      1.00000000</v>
    <i type="logical" name="LSPIRAL"> F  </i>
    <v name="QSPIRAL">      0.00000000      0.00000000      0.00000000</v>
    <i type="logical" name="LZEROZ"> F  </i>
   </separator>
   <separator name="electronic exchange-correlation" >
    <i type="logical" name="LASPH"> F  </i>
    <i type="logical" name="LMETAGGA"> F  </i>
   </separator>
   <separator name="electronic convergence" >
    <i type="int" name="NELM">   150</i>
    <i type="int" name="NELMDL">    -5</i>
    <i type="int" name="NELMIN">     2</i>
    <i name="ENINI">    450.00000000</i>
    <separator name="electronic convergence detail" >
     <i type="logical" name="LDIAG"> T  </i>
     <i type="logical" name="LSUBROT"> F  </i>
     <i name="WEIMIN">      0.00000000</i>
     <i name="EBREAK">      0.00000001</i>
     <i name="DEPER">      0.30000000</i>
     <i type="int" name="NRMM">     4</i>
     <i name="TIME">      0.40000000</i>
    </separator>
   </separator>
   <separator name="electronic mixer" >
    <i name="AMIX">      0.05000000</i>
    <i name="BMIX">      0.00010000</i>
    <i name="AMIN">      0.01000000</i>
    <i name="AMIX_MAG">      0.20000000</i>
    <i name="BMIX_MAG">      0.00010000</i>
    <separator name="electronic mixer details" >
     <i type="int" name="IMIX">     4</i>
     <i type="logical" name="MIXFIRST"> F  </i>
     <i type="int" name="MAXMIX">   -45</i>
     <i name="WC">    100.00000000</i>
     <i type="int" name="INIMIX">     1</i>
     <i type="int" name="MIXPRE">     1</i>
     <i type="int" name="MREMOVE">     5</i>
    </separator>
   </separator>
   <separator name="electronic dipolcorrection" >
    <i type="logical" name="LDIPOL"> T  </i>
    <i type="logical" name="LMONO"> F  </i>
    <i type="int" name="IDIPOL">     3</i>
    <i name="EPSILON">      1.00000000</i>
    <v name="DIPOL">   -100.00000000   -100.00000000   -100.00000000</v>
    <i name="EFIELD">      0.00000000</i>
   </separator>
  </separator>
  <separator name="grids" >
   <i type="int" name="NGX">    60</i>
   <i type="int" name="NGY">    60</i>
   <i type="int" name="NGZ">   168</i>
   <i type="int" name="NGXF">   120</i>
   <i type="int" name="NGYF">   120</i>
   <i type="int" name="NGZF">   336</i>
   <i type="logical" name="ADDGRID"> F  </i>
  </separator>
  <separator name="ionic" >
   <i type="int" name="NSW">     0</i>
   <i type="int" name="IBRION">    -1</i>
   <i type="int" name="MDALGO">     0</i>
   <i type="int" name="ISIF">     2</i>
   <i name="PSTRESS">      0.00000000</i>
   <i name="EDIFFG">      0.00010000</i>
   <i type="int" name="NFREE">     0</i>
   <i name="POTIM">      0.50000000</i>
   <i name="SMASS">     -3.00000000</i>
   <i name="SCALEE">      1.00000000</i>
  </separator>
  <separator name="ionic md" >
   <i name="TEBEG">      0.00010000</i>
   <i name="TEEND">      0.00010000</i>
   <i type="int" name="NBLOCK">     1</i>
   <i type="int" name="KBLOCK">     1</i>
   <i type="int" name="NPACO">   256</i>
   <i name="APACO">     10.00000000</i>
  </separator>
  <separator name="symmetry" >
   <i type="int" name="ISYM">     2</i>
   <i name="SYMPREC">      0.00001000</i>
  </separator>
  <separator name="dos" >
   <i type="int" name="LORBIT">     0</i>
   <v name="RWIGS">     -1.00000000     -1.00000000     -1.00000000</v>
   <i type="int" name="NEDOS">   301</i>
   <i name="EMIN">     10.00000000</i>
   <i name="EMAX">    -10.00000000</i>
   <i name="EFERMI">      0.00000000</i>
  </separator>
  <separator name="writing" >
   <i type="int" name="NWRITE">     2</i>
   <i type="logical" name="LWAVE"> T  </i>
   <i type="logical" name="LDOWNSAMPLE"> F  </i>
   <i type="logical" name="LCHARG"> T  </i>
   <i type="logical" name="LPARD"> F  </i>
   <i type="logical" name="LVTOT"> F  </i>
   <i type="logical" name="LVHAR"> F  </i>
   <i type="logical" name="LELF"> T  </i>
   <i type="logical" name="LOPTICS"> F  </i>
   <v name="STM">      0.00000000      0.00000000      0.00000000      0.00000000      0.00000000      0.00000000      0.00000000</v>
  </separator>
  <separator name="performance" >
   <i type="int" name="NPAR">     4</i>
   <i type="int" name="NSIM">     4</i>
   <i type="int" name="NBLK">    -1</i>
   <i type="logical" name="LPLANE"> T  </i>
   <i type="logical" name="LSCALAPACK"> T  </i>
   <i type="logical" name="LSCAAWARE"> F  </i>
   <i type="logical" name="LSCALU"> F  </i>
   <i type="logical" name="LASYNC"> F  </i>
   <i type="logical" name="LORBITALREAL"> F  </i>
  </separator>
  <separator name="miscellaneous" >
   <i type="int" name="IDIOT">     3</i>
   <i type="int" name="PHON_NSTRUCT">    -1</i>
   <i type="logical" name="LMUSIC"> F  </i>
   <v name="POMASS">     55.84700000     51.99600000    207.20000000</v>
   <v name="DARWINR">      0.00000000      0.00000000      0.00000000</v>
   <v name="DARWINV">      1.00000000      1.00000000      1.00000000</v>
   <i type="logical" name="LCORR"> T  </i>
  </separator>
  <i type="logical" name="GGA_COMPAT"> T  </i>
  <i type="logical" name="LBERRY"> F  </i>
  <i type="int" name="ICORELEVEL">     0</i>
  <i type="logical" name="LDAU"> F  </i>
  <i type="int" name="I_CONSTRAINED_M">     0</i>
  <separator name="electronic exchange-correlation" >
   <i type="string" name="GGA">--</i>
   <i type="int" name="VOSKOWN">     0</i>
   <i type="logical" name="LHFCALC"> F  </i>
   <i type="string" name="PRECFOCK"></i>
   <i type="logical" name="LSYMGRAD"> F  </i>
   <i type="logical" name="LHFONE"> F  </i>
   <i type="logical" name="LRHFCALC"> F  </i>
   <i type="logical" name="LTHOMAS"> F  </i>
   <i type="logical" name="LMODELHF"> F  </i>
   <i type="logical" name="LFOCKACE"> F  </i>
   <i name="ENCUT4O">     -1.00000000</i>
   <i type="int" name="EXXOEP">     0</i>
   <i type="int" name="FOURORBIT">     0</i>
   <i name="AEXX">      0.00000000</i>
   <i name="HFALPHA">      0.00000000</i>
   <i name="MCALPHA">      0.00000000</i>
   <i name="ALDAX">      1.00000000</i>
   <i name="AGGAX">      1.00000000</i>
   <i name="ALDAC">      1.00000000</i>
   <i name="AGGAC">      1.00000000</i>
   <i type="int" name="NKREDX">     1</i>
   <i type="int" name="NKREDY">     1</i>
   <i type="int" name="NKREDZ">     1</i>
   <i type="logical" name="SHIFTRED"> F  </i>
   <i type="logical" name="ODDONLY"> F  </i>
   <i type="logical" name="EVENONLY"> F  </i>
   <i type="int" name="LMAXFOCK">     0</i>
   <i type="int" name="NMAXFOCKAE">     0</i>
   <i type="logical" name="LFOCKAEDFT"> F  </i>
   <i name="HFSCREEN">      0.00000000</i>
   <i name="HFSCREENC">      0.00000000</i>
   <i type="int" name="NBANDSGWLOW">     0</i>
  </separator>
  <separator name="vdW DFT" >
   <i type="logical" name="LUSE_VDW"> F  </i>
   <i name="Zab_VDW">     -0.84910000</i>
   <i name="PARAM1">      0.12340000</i>
   <i name="PARAM2">      1.00000000</i>
   <i name="PARAM3">      0.00000000</i>
  </separator>
  <separator name="model GW" >
   <i type="int" name="MODEL_GW">     0</i>
   <i name="MODEL_EPS0">     16.03774504</i>
   <i name="MODEL_ALPHA">      1.00000000</i>
  </separator>
  <separator name="linear response parameters" >
   <i type="logical" name="LEPSILON"> F  </i>
   <i type="logical" name="LRPA"> F  </i>
   <i type="logical" name="LNABLA"> F  </i>
   <i type="logical" name="LVEL"> F  </i>
   <i name="CSHIFT">      0.10000000</i>
   <i name="OMEGAMAX">     -1.00000000</i>
   <i name="DEG_THRESHOLD">      0.00200000</i>
   <i name="RTIME">     -0.10000000</i>
   <i name="WPLASMAI">      0.00000000</i>
   <v name="DFIELD">      0.00000000      0.00000000      0.00000000</v>
   <v name="WPLASMA">      0.00000000      0.00000000      0.00000000      0.00000000      0.00000000      0.00000000      0.00000000      0.00000000      0.00000000</v>
  </separator>
  <separator name="orbital magnetization" >
   <i type="logical" name="NUCIND"> F  </i>
   <v name="MAGPOS">      0.00000000      0.00000000      0.00000000</v>
   <i type="logical" name="LNICSALL"> T  </i>
   <i type="logical" name="ORBITALMAG"> F  </i>
   <i type="logical" name="LMAGBLOCH"> F  </i>
   <i type="logical" name="LCHIMAG"> F  </i>
   <i type="logical" name="LGAUGE"> T  </i>
   <i type="int" name="MAGATOM">     0</i>
   <v name="MAGDIPOL">      0.00000000      0.00000000      0.00000000</v>
   <v name="AVECCONST">      0.00000000      0.00000000      0.00000000</v>
  </separator>
  <separator name="response functions" >
   <i type="logical" name="LFINITE_TEMPERATURE"> F  </i>
   <i type="logical" name="LADDER"> F  </i>
   <i type="logical" name="LRPAFORCE"> F  </i>
   <i type="logical" name="LFXC"> F  </i>
   <i type="logical" name="LHARTREE"> T  </i>
   <i type="int" name="IBSE">     0</i>
   <v type="int" name="KPOINT">    -1     0     0     0</v>
   <i type="logical" name="LTCTC"> F  </i>
   <i type="logical" name="LTCTE"> F  </i>
   <i type="logical" name="LTETE"> F  </i>
   <i type="logical" name="LTRIPLET"> F  </i>
   <i type="logical" name="LFXCEPS"> F  </i>
   <i type="logical" name="LFXHEG"> F  </i>
   <i type="int" name="NATURALO">     2</i>
   <i type="logical" name="LHOLEGF"> F  </i>
   <i type="logical" name="L2ORDER"> F  </i>
   <i type="logical" name="LDMP1"> F  </i>
   <i type="logical" name="LMP2LT"> F  </i>
   <i type="logical" name="LSMP2LT"> F  </i>
   <i type="logical" name="LGWLF"> F  </i>
   <i name="ENCUTGW">     -2.00000000</i>
   <i name="ENCUTGWSOFT">     -2.00000000</i>
   <i name="ENCUTLF">     -1.00000000</i>
   <i type="logical" name="LESF_SPLINES"> F  </i>
   <i type="int" name="LMAXMP2">    -1</i>
   <i name="SCISSOR">      0.00000000</i>
   <i type="int" name="NOMEGA">     0</i>
   <i type="int" name="NOMEGAR">     0</i>
   <i type="int" name="NBANDSGW">    -1</i>
   <i type="int" name="NBANDSO">    -1</i>
   <i type="int" name="NBANDSV">    -1</i>
   <i type="int" name="NELMGW">     1</i>
   <i type="int" name="NELMHF">     1</i>
   <i type="int" name="DIM">     3</i>
   <i type="int" name="IESPILON">     4</i>
   <i type="int" name="ANTIRES">     0</i>
   <i name="OMEGAMAX">    -30.00000000</i>
   <i name="OMEGAMIN">    -30.00000000</i>
   <i name="OMEGATL">   -200.00000000</i>
   <i type="int" name="OMEGAGRID">     0</i>
   <i name="CSHIFT">     -0.10000000</i>
   <i type="logical" name="LSELFENERGY"> F  </i>
   <i type="logical" name="LSPECTRAL"> F  </i>
   <i type="logical" name="LSPECTRALGW"> F  </i>
   <i type="logical" name="LSINGLES"> F  </i>
   <i type="logical" name="LFERMIGW"> F  </i>
   <i type="logical" name="ODDONLYGW"> F  </i>
   <i type="logical" name="EVENONLYGW"> F  </i>
   <i type="int" name="NKREDLFX">     1</i>
   <i type="int" name="NKREDLFY">     1</i>
   <i type="int" name="NKREDLFZ">     1</i>
   <i type="int" name="MAXMEM">  2800</i>
   <i type="int" name="TELESCOPE">     0</i>
   <i type="int" name="NTAUPAR">    -1</i>
   <i type="int" name="NOMEGAPAR">    -1</i>
   <i name="DAMP_NEWTON">      0.80000001</i>
   <i name="LAMBDA">      1.00000000</i>
  </separator>
  <separator name="External order field" >
   <i name="OFIELD_KAPPA">      0.00000000</i>
   <v name="OFIELD_K">      0.00000000      0.00000000      0.00000000</v>
   <i name="OFIELD_Q6_NEAR">      0.00000000</i>
   <i name="OFIELD_Q6_FAR">      0.00000000</i>
   <i name="OFIELD_A">      0.00000000</i>
  </separator>
  <separator name="optional k-points parameters" >
   <i type="int" name="KPOINTS_OPT_MODE">     1</i>
   <i type="logical" name="LKPOINTS_OPT"> F  </i>
  </separator>
  <separator name="solvation model" >
   <i type="logical" name="LSOL"> F  </i>
  </separator>
 </parameters>
 <atominfo>
  <atoms>      64 </atoms>
  <types>       3 </types>
  <array name="atoms" >
   <dimension dim="1">ion</dimension>
   <field type="string">element</field>
   <field type="int">atomtype</field>
   <set>
    <rc><c>Fe</c><c>   1</c></rc>
    <rc><c>Fe</c><c>   1</c></rc>
    <rc><c>Fe</c><c>   1</c></rc>
    <rc><c>Fe</c><c>   1</c></rc>
    <rc><c>Fe</c><c>   1</c></rc>
    <rc><c>Fe</c><c>   1</c></rc>
    <rc><c>Fe</c><c>   1</c></rc>
    <rc><c>Fe</c><c>   1</c></rc>
    <rc><c>Fe</c><c>   1</c></rc>
    <rc><c>Fe</c><c>   1</c></rc>
    <rc><c>Fe</c><c>   1</c></rc>
    <rc><c>Fe</c><c>   1</c></rc>
    <rc><c>Fe</c><c>   1</c></rc>
    <rc><c>Fe</c><c>   1</c></rc>
    <rc><c>Fe</c><c>   1</c></rc>
    <rc><c>Fe</c><c>   1</c></rc>
    <rc><c>Fe</c><c>   1</c></rc>
    <rc><c>Fe</c><c>   1</c></rc>
    <rc><c>Fe</c><c>   1</c></rc>
    <rc><c>Fe</c><c>   1</c></rc>
    <rc><c>Fe</c><c>   1</c></rc>
    <rc><c>Fe</c><c>   1</c></rc>
    <rc><c>Fe</c><c>   1</c></rc>
    <rc><c>Fe</c><c>   1</c></rc>
    <rc><c>Fe</c><c>   1</c></rc>
    <rc><c>Fe</c><c>   1</c></rc>
    <rc><c>Fe</c><c>   1</c></rc>
    <rc><c>Fe</c><c>   1</c></rc>
    <rc><c>Fe</c><c>   1</c></rc>
    <rc><c>Fe</c><c>   1</c></rc>
    <rc><c>Fe</c><c>   1</c></rc>
    <rc><c>Fe</c><c>   1</c></rc>
    <rc><c>Fe</c><c>   1</c></rc>
    <rc><c>Fe</c><c>   1</c></rc>
    <rc><c>Fe</c><c>   1</c></rc>
    <rc><c>Fe</c><c>   1</c></rc>
    <rc><c>Fe</c><c>   1</c></rc>
    <rc><c>Fe</c><c>   1</c></rc>
    <rc><c>Fe</c><c>   1</c></rc>
    <rc><c>Fe</c><c>   1</c></rc>
    <rc><c>Fe</c><c>   1</c></rc>
    <rc><c>Fe</c><c>   1</c></rc>
    <rc><c>Fe</c><c>   1</c></rc>
    <rc><c>Fe</c><c>   1</c></rc>
    <rc><c>Fe</c><c>   1</c></rc>
    <rc><c>Fe</c><c>   1</c></rc>
    <rc><c>Fe</c><c>   1</c></rc>
    <rc><c>Fe</c><c>   1</c></rc>
    <rc><c>Fe</c><c>   1</c></rc>
    <rc><c>Cr</c><c>   2</c></rc>
    <rc><c>Cr</c><c>   2</c></rc>
    <rc><c>Cr</c><c>   2</c></rc>
    <rc><c>Cr</c><c>   2</c></rc>
    <rc><c>Cr</c><c>   2</c></rc>
    <rc><c>Cr</c><c>   2</c></rc>
    <rc><c>Cr</c><c>   2</c></rc>
    <rc><c>Cr</c><c>   2</c></rc>
    <rc><c>Cr</c><c>   2</c></rc>
    <rc><c>Cr</c><c>   2</c></rc>
    <rc><c>Cr</c><c>   2</c></rc>
    <rc><c>Cr</c><c>   2</c></rc>
    <rc><c>Cr</c><c>   2</c></rc>
    <rc><c>Cr</c><c>   2</c></rc>
    <rc><c>Pb</c><c>   3</c></rc>
   </set>
  </array>
  <array name="atomtypes" >
   <dimension dim="1">type</dimension>
   <field type="int">atomspertype</field>
   <field type="string">element</field>
   <field>mass</field>
   <field>valence</field>
   <field type="string">pseudopotential</field>
   <set>
    <rc><c>  49</c><c>Fe</c><c>     55.84700000</c><c>      8.00000000</c><c>  PAW_PBE Fe 06Sep2000                  </c></rc>
    <rc><c>  14</c><c>Cr</c><c>     51.99600000</c><c>     12.00000000</c><c>  PAW_PBE Cr_pv 02Aug2007               </c></rc>
    <rc><c>   1</c><c>Pb</c><c>    207.20000000</c><c>     14.00000000</c><c>  PAW_PBE Pb_d 06Sep2000                </c></rc>
   </set>
  </array>
 </atominfo>
 <structure name="initialpos" >
  <crystal>
   <varray name="basis" >
    <v>       8.53269958       0.00000000       0.00000000 </v>
    <v>      -0.00051933       8.49699972       0.00000000 </v>
    <v>       0.00000000       0.00000000      23.59499931 </v>
   </varray>
   <i name="volume">   1710.69280467 </i>
   <varray name="rec_basis" >
    <v>       0.11719620       0.00000716       0.00000000 </v>
    <v>       0.00000000       0.11768860       0.00000000 </v>
    <v>       0.00000000       0.00000000       0.04238186 </v>
   </varray>
  </crystal>
  <varray name="positions" >
   <v>       0.00086000       0.99993000       0.24271000 </v>
   <v>       0.16626769       0.16575644       0.30369500 </v>
   <v>       0.50120145       0.16676079       0.30764167 </v>
   <v>       0.66822000       0.00107000       0.24272000 </v>
   <v>       0.83374116       0.16946272       0.30381090 </v>
   <v>       0.00044000       0.33497000       0.24240000 </v>
   <v>       0.16640462       0.50254777       0.30362740 </v>
   <v>       0.33469000       0.33305000       0.24267000 </v>
   <v>       0.50156301       0.49715214       0.30349304 </v>
   <v>       0.83495085       0.50423917       0.30240659 </v>
   <v>       0.16761919       0.83424967       0.30449006 </v>
   <v>       0.33342000       0.66555000       0.24261000 </v>
   <v>       0.83724831       0.83226544       0.30305123 </v>
   <v>       0.00064000       0.00119000       0.00199000 </v>
   <v>       0.99696510       0.00589455       0.36147297 </v>
   <v>       0.16843000       0.16962000       0.06269000 </v>
   <v>       0.33460000       0.00297000       0.00254000 </v>
   <v>       0.33027751       0.99813463       0.36272351 </v>
   <v>       0.50463000       0.16850000       0.06120000 </v>
   <v>       0.83272000       0.16670000       0.06193000 </v>
   <v>       0.00004000       0.33467000       0.00213000 </v>
   <v>       0.99914268       0.33280193       0.36059210 </v>
   <v>       0.16757000       0.49895000       0.06268000 </v>
   <v>       0.50099000       0.49896000       0.06206000 </v>
   <v>       0.83393000       0.50234000       0.06235000 </v>
   <v>       0.00121000       0.66785000       0.00188000 </v>
   <v>       0.99853816       0.66544501       0.36057215 </v>
   <v>       0.16792000       0.83462000       0.06228000 </v>
   <v>       0.33437000       0.66664000       0.00225000 </v>
   <v>       0.34066409       0.66409783       0.36146322 </v>
   <v>       0.50152000       0.83563000       0.06217000 </v>
   <v>       0.66753000       0.66705000       0.00175000 </v>
   <v>       0.66384397       0.66675293       0.36027299 </v>
   <v>       0.83293000       0.83584000       0.06235000 </v>
   <v>       0.00121000       0.00098000       0.12225000 </v>
   <v>       0.16700000       0.16811000       0.18239000 </v>
   <v>       0.33470000       0.00227000       0.12192000 </v>
   <v>       0.50174000       0.16716000       0.18263000 </v>
   <v>       0.83421000       0.16639000       0.18283000 </v>
   <v>       0.16964000       0.49868000       0.18209000 </v>
   <v>       0.50219000       0.50081000       0.18317000 </v>
   <v>       0.66741000       0.33395000       0.12233000 </v>
   <v>       0.83134000       0.50253000       0.18283000 </v>
   <v>       0.00132000       0.66795000       0.12253000 </v>
   <v>       0.16898000       0.83509000       0.18243000 </v>
   <v>       0.33446000       0.66703000       0.12223000 </v>
   <v>       0.49971000       0.83538000       0.18278000 </v>
   <v>       0.66698000       0.66840000       0.12259000 </v>
   <v>       0.83488000       0.83403000       0.18294000 </v>
   <v>       0.33558000       0.99863000       0.24353000 </v>
   <v>       0.66801000       0.33262000       0.24229000 </v>
   <v>       0.00448000       0.66739000       0.24217000 </v>
   <v>       0.49655519       0.83553756       0.30220330 </v>
   <v>       0.66521000       0.67351000       0.24327000 </v>
   <v>       0.66620000       0.99680000       0.00000000 </v>
   <v>       0.67593329       0.98953029       0.36299016 </v>
   <v>       0.33213000       0.33386000       0.00135000 </v>
   <v>       0.32407605       0.33930227       0.36512252 </v>
   <v>       0.67040000       0.33673000       0.00321000 </v>
   <v>       0.67646327       0.34272561       0.36667116 </v>
   <v>       0.66728000       0.99998000       0.12246000 </v>
   <v>       0.99806000       0.33495000       0.12235000 </v>
   <v>       0.33675000       0.33238000       0.12261000 </v>
   <v>       0.49908809       0.15936828       0.44487919 </v>
  </varray>
  <varray name="selective"  type="logical" >
   <v type="logical" >  F  F  F </v>
   <v type="logical" >  T  T  T </v>
   <v type="logical" >  T  T  T </v>
   <v type="logical" >  F  F  F </v>
   <v type="logical" >  T  T  T </v>
   <v type="logical" >  F  F  F </v>
   <v type="logical" >  T  T  T </v>
   <v type="logical" >  F  F  F </v>
   <v type="logical" >  T  T  T </v>
   <v type="logical" >  T  T  T </v>
   <v type="logical" >  T  T  T </v>
   <v type="logical" >  F  F  F </v>
   <v type="logical" >  T  T  T </v>
   <v type="logical" >  F  F  F </v>
   <v type="logical" >  T  T  T </v>
   <v type="logical" >  F  F  F </v>
   <v type="logical" >  F  F  F </v>
   <v type="logical" >  T  T  T </v>
   <v type="logical" >  F  F  F </v>
   <v type="logical" >  F  F  F </v>
   <v type="logical" >  F  F  F </v>
   <v type="logical" >  T  T  T </v>
   <v type="logical" >  F  F  F </v>
   <v type="logical" >  F  F  F </v>
   <v type="logical" >  F  F  F </v>
   <v type="logical" >  F  F  F </v>
   <v type="logical" >  T  T  T </v>
   <v type="logical" >  F  F  F </v>
   <v type="logical" >  F  F  F </v>
   <v type="logical" >  T  T  T </v>
   <v type="logical" >  F  F  F </v>
   <v type="logical" >  F  F  F </v>
   <v type="logical" >  T  T  T </v>
   <v type="logical" >  F  F  F </v>
   <v type="logical" >  F  F  F </v>
   <v type="logical" >  F  F  F </v>
   <v type="logical" >  F  F  F </v>
   <v type="logical" >  F  F  F </v>
   <v type="logical" >  F  F  F </v>
   <v type="logical" >  F  F  F </v>
   <v type="logical" >  F  F  F </v>
   <v type="logical" >  F  F  F </v>
   <v type="logical" >  F  F  F </v>
   <v type="logical" >  F  F  F </v>
   <v type="logical" >  F  F  F </v>
   <v type="logical" >  F  F  F </v>
   <v type="logical" >  F  F  F </v>
   <v type="logical" >  F  F  F </v>
   <v type="logical" >  F  F  F </v>
   <v type="logical" >  F  F  F </v>
   <v type="logical" >  F  F  F </v>
   <v type="logical" >  F  F  F </v>
   <v type="logical" >  T  T  T </v>
   <v type="logical" >  F  F  F </v>
   <v type="logical" >  F  F  F </v>
   <v type="logical" >  T  T  T </v>
   <v type="logical" >  F  F  F </v>
   <v type="logical" >  T  T  T </v>
   <v type="logical" >  F  F  F </v>
   <v type="logical" >  T  T  T </v>
   <v type="logical" >  F  F  F </v>
   <v type="logical" >  F  F  F </v>
   <v type="logical" >  F  F  F </v>
   <v type="logical" >  T  T  T </v>
  </varray>
  <nose>
   <v>      -3.00000000       0.00000000       0.00010000       0.00010000 </v>
  </nose>
 </structure>
 <calculation>
  <scstep>
   <time name="dav">  195.68   28.11</time>
   <time name="total">  204.61   29.85</time>
   <dipole>
    <v name="dipole">      0.00000000       0.00000000      -0.00029934 </v>
    <i name="Tr[quadrupol]">  -7260.69763080 </i>
    <i name="Echarged">      0.00000000 </i>
    <i name="Edipol_quadrupol">      0.00000000 </i>
    <i name="Eion">      0.00000000 </i>
   </dipole>
   <energy>
    <i name="alphaZ">   1868.92618040 </i>
    <i name="ewald"> 209719.28182834 </i>
    <i name="hartreedc">-261597.65669539 </i>
    <i name="XCdc">    998.80959921 </i>
    <i name="pawpsdc">  46919.87437312 </i>
    <i name="pawaedc"> -47958.31232237 </i>
    <i name="eentropy">      0.00000000 </i>
    <i name="bandstr">   1906.00877726 </i>
    <i name="atom">  53853.58386974 </i>
    <i name="e_fr_energy">   5710.51561032 </i>
    <i name="e_wo_entrp">   5710.51561032 </i>
    <i name="e_0_energy">   5710.51561032 </i>
   </energy>
  </scstep>
  <scstep>
   <time name="dav">  186.75   26.83</time>
   <time name="total">  187.26   26.90</time>
   <dipole>
    <v name="dipole">      0.00000000       0.00000000      -0.00029934 </v>
    <i name="Tr[quadrupol]">  -7260.69763080 </i>
    <i name="Echarged">      0.00000000 </i>
    <i name="Edipol_quadrupol">      0.00000000 </i>
    <i name="Eion">      0.00000000 </i>
   </dipole>
   <energy>
    <i name="e_fr_energy">    -59.02631592 </i>
    <i name="e_wo_entrp">    -59.02631592 </i>
    <i name="e_0_energy">    -59.02631592 </i>
   </energy>
  </scstep>
  <scstep>
   <time name="dav">  190.85   27.35</time>
   <time name="total">  191.43   27.43</time>
   <dipole>
    <v name="dipole">      0.00000000       0.00000000      -0.00029934 </v>
    <i name="Tr[quadrupol]">  -7260.69763080 </i>
    <i name="Echarged">      0.00000000 </i>
    <i name="Edipol_quadrupol">      0.00000000 </i>
    <i name="Eion">      0.00000000 </i>
   </dipole>
   <energy>
    <i name="e_fr_energy">   -529.26325715 </i>
    <i name="e_wo_entrp">   -529.26325715 </i>
    <i name="e_0_energy">   -529.26325715 </i>
   </energy>
  </scstep>
  <scstep>
   <time name="dav">  294.48   42.27</time>
   <time name="total">  295.06   42.35</time>
   <dipole>
    <v name="dipole">      0.00000000       0.00000000      -0.00029934 </v>
    <i name="Tr[quadrupol]">  -7260.69763080 </i>
    <i name="Echarged">      0.00000000 </i>
    <i name="Edipol_quadrupol">      0.00000000 </i>
    <i name="Eion">      0.00000000 </i>
   </dipole>
   <energy>
    <i name="e_fr_energy">   -589.29345136 </i>
    <i name="e_wo_entrp">   -589.29345136 </i>
    <i name="e_0_energy">   -589.29345136 </i>
   </energy>
  </scstep>
  <scstep>
   <time name="dav">  276.93   39.79</time>
   <time name="total">  279.25   40.36</time>
   <dipole>
    <v name="dipole">      0.00000000       0.00000000      -0.00029934 </v>
    <i name="Tr[quadrupol]">  -7260.69763080 </i>
    <i name="Echarged">      0.00000000 </i>
    <i name="Edipol_quadrupol">      0.00000000 </i>
    <i name="Eion">      0.00000000 </i>
   </dipole>
   <energy>
    <i name="e_fr_energy">   -592.83610496 </i>
    <i name="e_wo_entrp">   -592.83610496 </i>
    <i name="e_0_energy">   -592.83610496 </i>
   </energy>
  </scstep>
  <scstep>
   <time name="dav">  301.31   43.27</time>
   <time name="total">  311.67   45.46</time>
   <dipole>
    <v name="dipole">      0.00000000       0.00000000       1.68560716 </v>
    <i name="Tr[quadrupol]">  -7284.48821140 </i>
    <i name="Echarged">      0.00000000 </i>
    <i name="Edipol_quadrupol">      0.00000000 </i>
    <i name="Eion">      0.00000000 </i>
   </dipole>
   <energy>
    <i name="e_fr_energy">   -738.14012036 </i>
    <i name="e_wo_entrp">   -738.14012036 </i>
    <i name="e_0_energy">   -738.14012036 </i>
   </energy>
  </scstep>
  <scstep>
   <time name="dav">  307.55   44.14</time>
   <time name="total">  317.93   46.30</time>
   <dipole>
    <v name="dipole">      0.00000000       0.00000000      -1.58658949 </v>
    <i name="Tr[quadrupol]">  -7272.96261570 </i>
    <i name="Echarged">      0.00000000 </i>
    <i name="Edipol_quadrupol">      0.00000000 </i>
    <i name="Eion">      0.00000000 </i>
   </dipole>
   <energy>
    <i name="e_fr_energy">   -704.15383030 </i>
    <i name="e_wo_entrp">   -704.15383030 </i>
    <i name="e_0_energy">   -704.15383030 </i>
   </energy>
  </scstep>
  <scstep>
   <time name="dav">  303.70   43.68</time>
   <time name="total">  313.86   45.82</time>
   <dipole>
    <v name="dipole">      0.00000000       0.00000000       0.60134429 </v>
    <i name="Tr[quadrupol]">  -7270.01300924 </i>
    <i name="Echarged">      0.00000000 </i>
    <i name="Edipol_quadrupol">      0.00000000 </i>
    <i name="Eion">      0.00000000 </i>
   </dipole>
   <energy>
    <i name="e_fr_energy">   -561.31213413 </i>
    <i name="e_wo_entrp">   -561.31213413 </i>
    <i name="e_0_energy">   -561.31213413 </i>
   </energy>
  </scstep>
  <scstep>
   <time name="dav">  287.66   41.23</time>
   <time name="total">  297.90   43.39</time>
   <dipole>
    <v name="dipole">      0.00000000       0.00000000      -0.00491050 </v>
    <i name="Tr[quadrupol]">  -7268.98831778 </i>
    <i name="Echarged">      0.00000000 </i>
    <i name="Edipol_quadrupol">      0.00000000 </i>
    <i name="Eion">      0.00000000 </i>
   </dipole>
   <energy>
    <i name="e_fr_energy">   -540.81348798 </i>
    <i name="e_wo_entrp">   -540.81348798 </i>
    <i name="e_0_energy">   -540.81348798 </i>
   </energy>
  </scstep>
  <scstep>
   <time name="dav">  278.85   39.94</time>
   <time name="total">  289.20   42.10</time>
   <dipole>
    <v name="dipole">      0.00000000       0.00000000       0.25510002 </v>
    <i name="Tr[quadrupol]">  -7269.48007519 </i>
    <i name="Echarged">      0.00000000 </i>
    <i name="Edipol_quadrupol">      0.00000000 </i>
    <i name="Eion">      0.00000000 </i>
   </dipole>
   <energy>
    <i name="e_fr_energy">   -526.23998737 </i>
    <i name="e_wo_entrp">   -526.23998737 </i>
    <i name="e_0_energy">   -526.23998737 </i>
   </energy>
  </scstep>
  <scstep>
   <time name="dav">  250.41   35.87</time>
   <time name="total">  260.96   38.05</time>
   <dipole>
    <v name="dipole">      0.00000000       0.00000000      -0.04561302 </v>
    <i name="Tr[quadrupol]">  -7276.49709489 </i>
    <i name="Echarged">      0.00000000 </i>
    <i name="Edipol_quadrupol">      0.00000000 </i>
    <i name="Eion">      0.00000000 </i>
   </dipole>
   <energy>
    <i name="e_fr_energy">   -506.23348774 </i>
    <i name="e_wo_entrp">   -506.23348774 </i>
    <i name="e_0_energy">   -506.23348774 </i>
   </energy>
  </scstep>
  <scstep>
   <time name="dav">  244.98   35.10</time>
   <time name="total">  255.53   37.29</time>
   <dipole>
    <v name="dipole">      0.00000000       0.00000000       0.09107323 </v>
    <i name="Tr[quadrupol]">  -7282.10339199 </i>
    <i name="Echarged">      0.00000000 </i>
    <i name="Edipol_quadrupol">      0.00000000 </i>
    <i name="Eion">      0.00000000 </i>
   </dipole>
   <energy>
    <i name="e_fr_energy">   -501.36171553 </i>
    <i name="e_wo_entrp">   -501.36171553 </i>
    <i name="e_0_energy">   -501.36171553 </i>
   </energy>
  </scstep>
  <scstep>
   <time name="dav">  247.69   35.49</time>
   <time name="total">  258.05   37.65</time>
   <dipole>
    <v name="dipole">      0.00000000       0.00000000       0.08969116 </v>
    <i name="Tr[quadrupol]">  -7283.27750554 </i>
    <i name="Echarged">      0.00000000 </i>
    <i name="Edipol_quadrupol">      0.00000000 </i>
    <i name="Eion">      0.00000000 </i>
   </dipole>
   <energy>
    <i name="e_fr_energy">   -501.51522961 </i>
    <i name="e_wo_entrp">   -501.51522961 </i>
    <i name="e_0_energy">   -501.51522961 </i>
   </energy>
  </scstep>
  <scstep>
   <time name="dav">  271.74   39.04</time>
   <time name="total">  282.26   41.22</time>
   <dipole>
    <v name="dipole">      0.00000000       0.00000000       0.08628889 </v>
    <i name="Tr[quadrupol]">  -7283.01474166 </i>
    <i name="Echarged">      0.00000000 </i>
    <i name="Edipol_quadrupol">      0.00000000 </i>
    <i name="Eion">      0.00000000 </i>
   </dipole>
   <energy>
    <i name="e_fr_energy">   -501.37508512 </i>
    <i name="e_wo_entrp">   -501.37508512 </i>
    <i name="e_0_energy">   -501.37508512 </i>
   </energy>
  </scstep>
  <scstep>
   <time name="dav">  295.71   42.48</time>
   <time name="total">  306.07   44.64</time>
   <dipole>
    <v name="dipole">      0.00000000       0.00000000       0.15353785 </v>
    <i name="Tr[quadrupol]">  -7284.32904724 </i>
    <i name="Echarged">      0.00000000 </i>
    <i name="Edipol_quadrupol">      0.00000000 </i>
    <i name="Eion">      0.00000000 </i>
   </dipole>
   <energy>
    <i name="e_fr_energy">   -503.00009977 </i>
    <i name="e_wo_entrp">   -503.00009977 </i>
    <i name="e_0_energy">   -503.00009977 </i>
   </energy>
  </scstep>
  <scstep>
   <time name="dav">  291.13   41.81</time>
   <time name="total">  301.56   43.97</time>
   <dipole>
    <v name="dipole">      0.00000000       0.00000000       0.03555593 </v>
    <i name="Tr[quadrupol]">  -7287.13721121 </i>
    <i name="Echarged">      0.00000000 </i>
    <i name="Edipol_quadrupol">      0.00000000 </i>
    <i name="Eion">      0.00000000 </i>
   </dipole>
   <energy>
    <i name="e_fr_energy">   -505.24026048 </i>
    <i name="e_wo_entrp">   -505.24026048 </i>
    <i name="e_0_energy">   -505.24026048 </i>
   </energy>
  </scstep>
  <scstep>
   <time name="dav">  277.46   39.85</time>
   <time name="total">  287.64   42.01</time>
   <dipole>
    <v name="dipole">      0.00000000       0.00000000       0.19181244 </v>
    <i name="Tr[quadrupol]">  -7290.07678223 </i>
    <i name="Echarged">      0.00000000 </i>
    <i name="Edipol_quadrupol">      0.00000000 </i>
    <i name="Eion">      0.00000000 </i>
   </dipole>
   <energy>
    <i name="e_fr_energy">   -507.92765407 </i>
    <i name="e_wo_entrp">   -507.92765407 </i>
    <i name="e_0_energy">   -507.92765407 </i>
   </energy>
  </scstep>
  <scstep>
   <time name="dav">  290.11   41.65</time>
   <time name="total">  300.52   43.82</time>
   <dipole>
    <v name="dipole">      0.00000000       0.00000000       0.06178406 </v>
    <i name="Tr[quadrupol]">  -7291.25415827 </i>
    <i name="Echarged">      0.00000000 </i>
    <i name="Edipol_quadrupol">      0.00000000 </i>
    <i name="Eion">      0.00000000 </i>
   </dipole>
   <energy>
    <i name="e_fr_energy">   -509.82567564 </i>
    <i name="e_wo_entrp">   -509.82567564 </i>
    <i name="e_0_energy">   -509.82567564 </i>
   </energy>
  </scstep>
  <scstep>
   <time name="dav">  269.99   38.71</time>
   <time name="total">  280.63   40.90</time>
   <dipole>
    <v name="dipole">      0.00000000       0.00000000       0.10731977 </v>
    <i name="Tr[quadrupol]">  -7291.79325595 </i>
    <i name="Echarged">      0.00000000 </i>
    <i name="Edipol_quadrupol">      0.00000000 </i>
    <i name="Eion">      0.00000000 </i>
   </dipole>
   <energy>
    <i name="e_fr_energy">   -510.34228396 </i>
    <i name="e_wo_entrp">   -510.34228396 </i>
    <i name="e_0_energy">   -510.34228396 </i>
   </energy>
  </scstep>
  <scstep>
   <time name="dav">  285.37   40.89</time>
   <time name="total">  295.77   43.05</time>
   <dipole>
    <v name="dipole">      0.00000000       0.00000000       0.12148652 </v>
    <i name="Tr[quadrupol]">  -7291.87908113 </i>
    <i name="Echarged">      0.00000000 </i>
    <i name="Edipol_quadrupol">      0.00000000 </i>
    <i name="Eion">      0.00000000 </i>
   </dipole>
   <energy>
    <i name="e_fr_energy">   -510.83344539 </i>
    <i name="e_wo_entrp">   -510.83344539 </i>
    <i name="e_0_energy">   -510.83344539 </i>
   </energy>
  </scstep>
  <scstep>
   <time name="dav">  291.87   41.83</time>
   <time name="total">  302.24   44.00</time>
   <dipole>
    <v name="dipole">      0.00000000       0.00000000       0.10151566 </v>
    <i name="Tr[quadrupol]">  -7291.09939079 </i>
    <i name="Echarged">      0.00000000 </i>
    <i name="Edipol_quadrupol">      0.00000000 </i>
    <i name="Eion">      0.00000000 </i>
   </dipole>
   <energy>
    <i name="e_fr_energy">   -511.32806007 </i>
    <i name="e_wo_entrp">   -511.32806007 </i>
    <i name="e_0_energy">   -511.32806007 </i>
   </energy>
  </scstep>
  <scstep>
   <time name="dav">  290.12   41.68</time>
   <time name="total">  300.98   43.91</time>
   <dipole>
    <v name="dipole">      0.00000000       0.00000000       0.13930621 </v>
    <i name="Tr[quadrupol]">  -7290.37538946 </i>
    <i name="Echarged">      0.00000000 </i>
    <i name="Edipol_quadrupol">      0.00000000 </i>
    <i name="Eion">      0.00000000 </i>
   </dipole>
   <energy>
    <i name="e_fr_energy">   -511.71362311 </i>
    <i name="e_wo_entrp">   -511.71362311 </i>
    <i name="e_0_energy">   -511.71362311 </i>
   </energy>
  </scstep>
  <scstep>
   <time name="dav">  294.41   42.36</time>
   <time name="total">  304.88   44.53</time>
   <dipole>
    <v name="dipole">      0.00000000       0.00000000       0.15317807 </v>
    <i name="Tr[quadrupol]">  -7290.18995186 </i>
    <i name="Echarged">      0.00000000 </i>
    <i name="Edipol_quadrupol">      0.00000000 </i>
    <i name="Eion">      0.00000000 </i>
   </dipole>
   <energy>
    <i name="e_fr_energy">   -511.91304318 </i>
    <i name="e_wo_entrp">   -511.91304318 </i>
    <i name="e_0_energy">   -511.91304318 </i>
   </energy>
  </scstep>
  <scstep>
   <time name="dav">  254.64   36.54</time>
   <time name="total">  265.16   38.72</time>
   <dipole>
    <v name="dipole">      0.00000000       0.00000000       0.16099760 </v>
    <i name="Tr[quadrupol]">  -7290.44496494 </i>
    <i name="Echarged">      0.00000000 </i>
    <i name="Edipol_quadrupol">      0.00000000 </i>
    <i name="Eion">      0.00000000 </i>
   </dipole>
   <energy>
    <i name="e_fr_energy">   -511.99199881 </i>
    <i name="e_wo_entrp">   -511.99199881 </i>
    <i name="e_0_energy">   -511.99199881 </i>
   </energy>
  </scstep>
  <scstep>
   <time name="dav">  296.90   42.64</time>
   <time name="total">  307.46   44.82</time>
   <dipole>
    <v name="dipole">      0.00000000       0.00000000       0.17783480 </v>
    <i name="Tr[quadrupol]">  -7290.70370302 </i>
    <i name="Echarged">      0.00000000 </i>
    <i name="Edipol_quadrupol">      0.00000000 </i>
    <i name="Eion">      0.00000000 </i>
   </dipole>
   <energy>
    <i name="e_fr_energy">   -512.21209001 </i>
    <i name="e_wo_entrp">   -512.21209001 </i>
    <i name="e_0_energy">   -512.21209001 </i>
   </energy>
  </scstep>
  <scstep>
   <time name="dav">  298.83   42.97</time>
   <time name="total">  309.43   45.16</time>
   <dipole>
    <v name="dipole">      0.00000000       0.00000000       0.13978773 </v>
    <i name="Tr[quadrupol]">  -7290.73301116 </i>
    <i name="Echarged">      0.00000000 </i>
    <i name="Edipol_quadrupol">      0.00000000 </i>
    <i name="Eion">      0.00000000 </i>
   </dipole>
   <energy>
    <i name="e_fr_energy">   -512.69532731 </i>
    <i name="e_wo_entrp">   -512.69532731 </i>
    <i name="e_0_energy">   -512.69532731 </i>
   </energy>
  </scstep>
  <scstep>
   <time name="dav">  285.09   40.96</time>
   <time name="total">  295.72   43.15</time>
   <dipole>
    <v name="dipole">      0.00000000       0.00000000       0.13018424 </v>
    <i name="Tr[quadrupol]">  -7290.44056267 </i>
    <i name="Echarged">      0.00000000 </i>
    <i name="Edipol_quadrupol">      0.00000000 </i>
    <i name="Eion">      0.00000000 </i>
   </dipole>
   <energy>
    <i name="e_fr_energy">   -513.22857835 </i>
    <i name="e_wo_entrp">   -513.22857835 </i>
    <i name="e_0_energy">   -513.22857835 </i>
   </energy>
  </scstep>
  <scstep>
   <time name="dav">  290.62   41.73</time>
   <time name="total">  301.20   43.92</time>
   <dipole>
    <v name="dipole">      0.00000000       0.00000000       0.08937497 </v>
    <i name="Tr[quadrupol]">  -7290.57343236 </i>
    <i name="Echarged">      0.00000000 </i>
    <i name="Edipol_quadrupol">      0.00000000 </i>
    <i name="Eion">      0.00000000 </i>
   </dipole>
   <energy>
    <i name="e_fr_energy">   -513.48972794 </i>
    <i name="e_wo_entrp">   -513.48972794 </i>
    <i name="e_0_energy">   -513.48972794 </i>
   </energy>
  </scstep>
  <scstep>
   <time name="dav">  270.88   38.89</time>
   <time name="total">  281.47   41.10</time>
   <dipole>
    <v name="dipole">      0.00000000       0.00000000       0.10518674 </v>
    <i name="Tr[quadrupol]">  -7290.61196469 </i>
    <i name="Echarged">      0.00000000 </i>
    <i name="Edipol_quadrupol">      0.00000000 </i>
    <i name="Eion">      0.00000000 </i>
   </dipole>
   <energy>
    <i name="e_fr_energy">   -513.50266066 </i>
    <i name="e_wo_entrp">   -513.50266066 </i>
    <i name="e_0_energy">   -513.50266066 </i>
   </energy>
  </scstep>
  <scstep>
   <time name="dav">  288.52   41.39</time>
   <time name="total">  299.31   43.60</time>
   <dipole>
    <v name="dipole">      0.00000000       0.00000000       0.12262126 </v>
    <i name="Tr[quadrupol]">  -7290.60773793 </i>
    <i name="Echarged">      0.00000000 </i>
    <i name="Edipol_quadrupol">      0.00000000 </i>
    <i name="Eion">      0.00000000 </i>
   </dipole>
   <energy>
    <i name="e_fr_energy">   -513.63051692 </i>
    <i name="e_wo_entrp">   -513.63051692 </i>
    <i name="e_0_energy">   -513.63051692 </i>
   </energy>
  </scstep>
  <scstep>
   <time name="dav">  274.44   39.41</time>
   <time name="total">  285.14   41.61</time>
   <dipole>
    <v name="dipole">      0.00000000       0.00000000       0.13509481 </v>
    <i name="Tr[quadrupol]">  -7290.61565193 </i>
    <i name="Echarged">      0.00000000 </i>
    <i name="Edipol_quadrupol">      0.00000000 </i>
    <i name="Eion">      0.00000000 </i>
   </dipole>
   <energy>
    <i name="e_fr_energy">   -513.65026079 </i>
    <i name="e_wo_entrp">   -513.65026079 </i>
    <i name="e_0_energy">   -513.65026079 </i>
   </energy>
  </scstep>
  <scstep>
   <time name="dav">  280.00   40.26</time>
   <time name="total">  290.65   42.47</time>
   <dipole>
    <v name="dipole">      0.00000000       0.00000000       0.13358198 </v>
    <i name="Tr[quadrupol]">  -7290.53963700 </i>
    <i name="Echarged">      0.00000000 </i>
    <i name="Edipol_quadrupol">      0.00000000 </i>
    <i name="Eion">      0.00000000 </i>
   </dipole>
   <energy>
    <i name="e_fr_energy">   -513.66031915 </i>
    <i name="e_wo_entrp">   -513.66031915 </i>
    <i name="e_0_energy">   -513.66031915 </i>
   </energy>
  </scstep>
  <scstep>
   <time name="dav">  291.45   41.85</time>
   <time name="total">  302.17   44.06</time>
   <dipole>
    <v name="dipole">      0.00000000       0.00000000       0.13785107 </v>
    <i name="Tr[quadrupol]">  -7290.46127809 </i>
    <i name="Echarged">      0.00000000 </i>
    <i name="Edipol_quadrupol">      0.00000000 </i>
    <i name="Eion">      0.00000000 </i>
   </dipole>
   <energy>
    <i name="e_fr_energy">   -513.68436513 </i>
    <i name="e_wo_entrp">   -513.68436513 </i>
    <i name="e_0_energy">   -513.68436513 </i>
   </energy>
  </scstep>
  <scstep>
   <time name="dav">  278.26   39.97</time>
   <time name="total">  289.48   42.25</time>
   <dipole>
    <v name="dipole">      0.00000000       0.00000000       0.13992350 </v>
    <i name="Tr[quadrupol]">  -7290.43110517 </i>
    <i name="Echarged">      0.00000000 </i>
    <i name="Edipol_quadrupol">      0.00000000 </i>
    <i name="Eion">      0.00000000 </i>
   </dipole>
   <energy>
    <i name="e_fr_energy">   -513.70250862 </i>
    <i name="e_wo_entrp">   -513.70250862 </i>
    <i name="e_0_energy">   -513.70250862 </i>
   </energy>
  </scstep>
  <scstep>
   <time name="dav">  283.57   40.71</time>
   <time name="total">  294.38   42.94</time>
   <dipole>
    <v name="dipole">      0.00000000       0.00000000       0.14417398 </v>
    <i name="Tr[quadrupol]">  -7290.49540524 </i>
    <i name="Echarged">      0.00000000 </i>
    <i name="Edipol_quadrupol">      0.00000000 </i>
    <i name="Eion">      0.00000000 </i>
   </dipole>
   <energy>
    <i name="e_fr_energy">   -513.71822541 </i>
    <i name="e_wo_entrp">   -513.71822541 </i>
    <i name="e_0_energy">   -513.71822541 </i>
   </energy>
  </scstep>
  <scstep>
   <time name="dav">  295.13   42.28</time>
   <time name="total">  305.97   44.50</time>
   <dipole>
    <v name="dipole">      0.00000000       0.00000000       0.14717204 </v>
    <i name="Tr[quadrupol]">  -7290.40115207 </i>
    <i name="Echarged">      0.00000000 </i>
    <i name="Edipol_quadrupol">      0.00000000 </i>
    <i name="Eion">      0.00000000 </i>
   </dipole>
   <energy>
    <i name="e_fr_energy">   -513.72749210 </i>
    <i name="e_wo_entrp">   -513.72749210 </i>
    <i name="e_0_energy">   -513.72749210 </i>
   </energy>
  </scstep>
  <scstep>
   <time name="dav">  279.25   40.02</time>
   <time name="total">  290.01   42.23</time>
   <dipole>
    <v name="dipole">      0.00000000       0.00000000       0.14891513 </v>
    <i name="Tr[quadrupol]">  -7290.33014439 </i>
    <i name="Echarged">      0.00000000 </i>
    <i name="Edipol_quadrupol">      0.00000000 </i>
    <i name="Eion">      0.00000000 </i>
   </dipole>
   <energy>
    <i name="e_fr_energy">   -513.73200603 </i>
    <i name="e_wo_entrp">   -513.73200603 </i>
    <i name="e_0_energy">   -513.73200603 </i>
   </energy>
  </scstep>
  <scstep>
   <time name="dav">  275.25   39.45</time>
   <time name="total">  286.00   41.68</time>
   <dipole>
    <v name="dipole">      0.00000000       0.00000000       0.14615128 </v>
    <i name="Tr[quadrupol]">  -7290.31325636 </i>
    <i name="Echarged">      0.00000000 </i>
    <i name="Edipol_quadrupol">      0.00000000 </i>
    <i name="Eion">      0.00000000 </i>
   </dipole>
   <energy>
    <i name="e_fr_energy">   -513.73385487 </i>
    <i name="e_wo_entrp">   -513.73385487 </i>
    <i name="e_0_energy">   -513.73385487 </i>
   </energy>
  </scstep>
  <scstep>
   <time name="dav">  292.96   42.07</time>
   <time name="total">  304.06   44.33</time>
   <dipole>
    <v name="dipole">      0.00000000       0.00000000       0.14306670 </v>
    <i name="Tr[quadrupol]">  -7290.36408587 </i>
    <i name="Echarged">      0.00000000 </i>
    <i name="Edipol_quadrupol">      0.00000000 </i>
    <i name="Eion">      0.00000000 </i>
   </dipole>
   <energy>
    <i name="e_fr_energy">   -513.73296348 </i>
    <i name="e_wo_entrp">   -513.73296348 </i>
    <i name="e_0_energy">   -513.73296348 </i>
   </energy>
  </scstep>
  <scstep>
   <time name="dav">  273.55   39.27</time>
   <time name="total">  284.30   41.48</time>
   <dipole>
    <v name="dipole">      0.00000000       0.00000000       0.14578945 </v>
    <i name="Tr[quadrupol]">  -7290.37957064 </i>
    <i name="Echarged">      0.00000000 </i>
    <i name="Edipol_quadrupol">      0.00000000 </i>
    <i name="Eion">      0.00000000 </i>
   </dipole>
   <energy>
    <i name="e_fr_energy">   -513.73317353 </i>
    <i name="e_wo_entrp">   -513.73317353 </i>
    <i name="e_0_energy">   -513.73317353 </i>
   </energy>
  </scstep>
  <scstep>
   <time name="dav">  292.02   41.92</time>
   <time name="total">  302.85   44.14</time>
   <dipole>
    <v name="dipole">      0.00000000       0.00000000       0.14304154 </v>
    <i name="Tr[quadrupol]">  -7290.37125151 </i>
    <i name="Echarged">      0.00000000 </i>
    <i name="Edipol_quadrupol">      0.00000000 </i>
    <i name="Eion">      0.00000000 </i>
   </dipole>
   <energy>
    <i name="e_fr_energy">   -513.73379810 </i>
    <i name="e_wo_entrp">   -513.73379810 </i>
    <i name="e_0_energy">   -513.73379810 </i>
   </energy>
  </scstep>
  <scstep>
   <time name="dav">  275.92   39.62</time>
   <time name="total">  286.99   41.89</time>
   <dipole>
    <v name="dipole">      0.00000000       0.00000000       0.14349549 </v>
    <i name="Tr[quadrupol]">  -7290.34781621 </i>
    <i name="Echarged">      0.00000000 </i>
    <i name="Edipol_quadrupol">      0.00000000 </i>
    <i name="Eion">      0.00000000 </i>
   </dipole>
   <energy>
    <i name="e_fr_energy">   -513.73509531 </i>
    <i name="e_wo_entrp">   -513.73509531 </i>
    <i name="e_0_energy">   -513.73509531 </i>
   </energy>
  </scstep>
  <scstep>
   <time name="dav">  284.82   40.90</time>
   <time name="total">  295.68   43.13</time>
   <dipole>
    <v name="dipole">      0.00000000       0.00000000       0.14254611 </v>
    <i name="Tr[quadrupol]">  -7290.32839320 </i>
    <i name="Echarged">      0.00000000 </i>
    <i name="Edipol_quadrupol">      0.00000000 </i>
    <i name="Eion">      0.00000000 </i>
   </dipole>
   <energy>
    <i name="e_fr_energy">   -513.73578513 </i>
    <i name="e_wo_entrp">   -513.73578513 </i>
    <i name="e_0_energy">   -513.73578513 </i>
   </energy>
  </scstep>
  <scstep>
   <time name="dav">  292.92   42.07</time>
   <time name="total">  303.88   44.31</time>
   <dipole>
    <v name="dipole">      0.00000000       0.00000000       0.14372391 </v>
    <i name="Tr[quadrupol]">  -7290.35392266 </i>
    <i name="Echarged">      0.00000000 </i>
    <i name="Edipol_quadrupol">      0.00000000 </i>
    <i name="Eion">      0.00000000 </i>
   </dipole>
   <energy>
    <i name="e_fr_energy">   -513.73622861 </i>
    <i name="e_wo_entrp">   -513.73622861 </i>
    <i name="e_0_energy">   -513.73622861 </i>
   </energy>
  </scstep>
  <scstep>
   <time name="dav">  270.57   38.87</time>
   <time name="total">  281.57   41.12</time>
   <dipole>
    <v name="dipole">      0.00000000       0.00000000       0.14297547 </v>
    <i name="Tr[quadrupol]">  -7290.36476660 </i>
    <i name="Echarged">      0.00000000 </i>
    <i name="Edipol_quadrupol">      0.00000000 </i>
    <i name="Eion">      0.00000000 </i>
   </dipole>
   <energy>
    <i name="e_fr_energy">   -513.73645185 </i>
    <i name="e_wo_entrp">   -513.73645185 </i>
    <i name="e_0_energy">   -513.73645185 </i>
   </energy>
  </scstep>
  <scstep>
   <time name="dav">  289.98   41.65</time>
   <time name="total">  301.08   43.92</time>
   <dipole>
    <v name="dipole">      0.00000000       0.00000000       0.14261832 </v>
    <i name="Tr[quadrupol]">  -7290.36566250 </i>
    <i name="Echarged">      0.00000000 </i>
    <i name="Edipol_quadrupol">      0.00000000 </i>
    <i name="Eion">      0.00000000 </i>
   </dipole>
   <energy>
    <i name="e_fr_energy">   -513.73638060 </i>
    <i name="e_wo_entrp">   -513.73638060 </i>
    <i name="e_0_energy">   -513.73638060 </i>
   </energy>
  </scstep>
  <scstep>
   <time name="dav">  284.58   40.84</time>
   <time name="total">  295.72   43.10</time>
   <dipole>
    <v name="dipole">      0.00000000       0.00000000       0.14323690 </v>
    <i name="Tr[quadrupol]">  -7290.35800342 </i>
    <i name="Echarged">      0.00000000 </i>
    <i name="Edipol_quadrupol">      0.00000000 </i>
    <i name="Eion">      0.00000000 </i>
   </dipole>
   <energy>
    <i name="e_fr_energy">   -513.73641933 </i>
    <i name="e_wo_entrp">   -513.73641933 </i>
    <i name="e_0_energy">   -513.73641933 </i>
   </energy>
  </scstep>
  <scstep>
   <time name="dav">  281.66   40.40</time>
   <time name="total">  292.73   42.65</time>
   <dipole>
    <v name="dipole">      0.00000000       0.00000000       0.14320100 </v>
    <i name="Tr[quadrupol]">  -7290.36656390 </i>
    <i name="Echarged">      0.00000000 </i>
    <i name="Edipol_quadrupol">      0.00000000 </i>
    <i name="Eion">      0.00000000 </i>
   </dipole>
   <energy>
    <i name="e_fr_energy">   -513.73654281 </i>
    <i name="e_wo_entrp">   -513.73654281 </i>
    <i name="e_0_energy">   -513.73654281 </i>
   </energy>
  </scstep>
  <scstep>
   <time name="dav">  283.92   40.80</time>
   <time name="total">  295.01   43.07</time>
   <dipole>
    <v name="dipole">      0.00000000       0.00000000       0.14344685 </v>
    <i name="Tr[quadrupol]">  -7290.37903358 </i>
    <i name="Echarged">      0.00000000 </i>
    <i name="Edipol_quadrupol">      0.00000000 </i>
    <i name="Eion">      0.00000000 </i>
   </dipole>
   <energy>
    <i name="e_fr_energy">   -513.73672362 </i>
    <i name="e_wo_entrp">   -513.73672362 </i>
    <i name="e_0_energy">   -513.73672362 </i>
   </energy>
  </scstep>
  <scstep>
   <time name="dav">  204.51   31.60</time>
   <time name="total">  215.57   33.86</time>
   <dipole>
    <v name="dipole">      0.00000000       0.00000000       0.14310110 </v>
    <i name="Tr[quadrupol]">  -7290.40224788 </i>
    <i name="Echarged">      0.00000000 </i>
    <i name="Edipol_quadrupol">      0.00000000 </i>
    <i name="Eion">      0.00000000 </i>
   </dipole>
   <energy>
    <i name="e_fr_energy">   -513.73675927 </i>
    <i name="e_wo_entrp">   -513.73675927 </i>
    <i name="e_0_energy">   -513.73675927 </i>
   </energy>
  </scstep>
  <scstep>
   <time name="dav">  247.91   35.70</time>
   <time name="total">  258.81   37.94</time>
   <dipole>
    <v name="dipole">      0.00000000       0.00000000       0.14318239 </v>
    <i name="Tr[quadrupol]">  -7290.40384226 </i>
    <i name="Echarged">      0.00000000 </i>
    <i name="Edipol_quadrupol">      0.00000000 </i>
    <i name="Eion">      0.00000000 </i>
   </dipole>
   <energy>
    <i name="e_fr_energy">   -513.73678056 </i>
    <i name="e_wo_entrp">   -513.73678056 </i>
    <i name="e_0_energy">   -513.73678056 </i>
   </energy>
  </scstep>
  <scstep>
   <time name="dav">  187.52   28.88</time>
   <time name="total">  198.69   31.15</time>
   <dipole>
    <v name="dipole">      0.00000000       0.00000000       0.14340335 </v>
    <i name="Tr[quadrupol]">  -7290.40516163 </i>
    <i name="Echarged">      0.00000000 </i>
    <i name="Edipol_quadrupol">      0.00000000 </i>
    <i name="Eion">      0.00000000 </i>
   </dipole>
   <energy>
    <i name="e_fr_energy">   -513.73676575 </i>
    <i name="e_wo_entrp">   -513.73676575 </i>
    <i name="e_0_energy">   -513.73676575 </i>
   </energy>
  </scstep>
  <scstep>
   <time name="dav">  114.15   22.53</time>
   <time name="total">  125.27   24.81</time>
   <dipole>
    <v name="dipole">      0.00000000       0.00000000       0.14361868 </v>
    <i name="Tr[quadrupol]">  -7290.40735489 </i>
    <i name="Echarged">      0.00000000 </i>
    <i name="Edipol_quadrupol">      0.00000000 </i>
    <i name="Eion">      0.00000000 </i>
   </dipole>
   <energy>
    <i name="e_fr_energy">   -513.73672403 </i>
    <i name="e_wo_entrp">   -513.73672403 </i>
    <i name="e_0_energy">   -513.73672403 </i>
   </energy>
  </scstep>
  <scstep>
   <time name="dav">  177.37   27.63</time>
   <time name="total">  188.60   29.92</time>
   <dipole>
    <v name="dipole">      0.00000000       0.00000000       0.14350069 </v>
    <i name="Tr[quadrupol]">  -7290.40832193 </i>
    <i name="Echarged">      0.00000000 </i>
    <i name="Edipol_quadrupol">      0.00000000 </i>
    <i name="Eion">      0.00000000 </i>
   </dipole>
   <energy>
    <i name="e_fr_energy">   -513.73670842 </i>
    <i name="e_wo_entrp">   -513.73670842 </i>
    <i name="e_0_energy">   -513.73670842 </i>
   </energy>
  </scstep>
  <scstep>
   <time name="dav">   85.95   19.91</time>
   <time name="total">   96.97   22.17</time>
   <dipole>
    <v name="dipole">      0.00000000       0.00000000       0.14327757 </v>
    <i name="Tr[quadrupol]">  -7290.40678651 </i>
    <i name="Echarged">      0.00000000 </i>
    <i name="Edipol_quadrupol">      0.00000000 </i>
    <i name="Eion">      0.00000000 </i>
   </dipole>
   <energy>
    <i name="e_fr_energy">   -513.73673132 </i>
    <i name="e_wo_entrp">   -513.73673132 </i>
    <i name="e_0_energy">   -513.73673132 </i>
   </energy>
  </scstep>
  <scstep>
   <time name="dav">   70.12   18.88</time>
   <time name="total">   78.61   20.56</time>
   <dipole>
    <v name="dipole">      0.00000000       0.00000000       0.14309823 </v>
    <i name="Tr[quadrupol]">  -7290.40560833 </i>
    <i name="Echarged">      0.00000000 </i>
    <i name="Edipol_quadrupol">      0.00000000 </i>
    <i name="Eion">      0.00000000 </i>
   </dipole>
   <energy>
    <i name="alphaZ">   1870.19263363 </i>
    <i name="ewald"> 209719.28182834 </i>
    <i name="hartreedc">-261454.04513470 </i>
    <i name="XCdc">   1003.90536918 </i>
    <i name="pawpsdc">  56063.47509805 </i>
    <i name="pawaedc"> -57194.89810847 </i>
    <i name="eentropy">      0.00000000 </i>
    <i name="bandstr">  -4375.23228616 </i>
    <i name="atom">  53853.58386974 </i>
    <i name="e_fr_energy">   -513.73673040 </i>
    <i name="e_wo_entrp">   -513.73673040 </i>
    <i name="e_0_energy">   -513.73673040 </i>
   </energy>
  </scstep>
  <structure>
   <crystal>
    <varray name="basis" >
     <v>       8.53269958       0.00000000       0.00000000 </v>
     <v>      -0.00051933       8.49699972       0.00000000 </v>
     <v>       0.00000000       0.00000000      23.59499931 </v>
    </varray>
    <i name="volume">   1710.69280467 </i>
    <varray name="rec_basis" >
     <v>       0.11719620       0.00000716       0.00000000 </v>
     <v>       0.00000000       0.11768860       0.00000000 </v>
     <v>       0.00000000       0.00000000       0.04238186 </v>
    </varray>
   </crystal>
   <varray name="positions" >
    <v>       0.00086000       0.99993000       0.24271000 </v>
    <v>       0.16626769       0.16575644       0.30369500 </v>
    <v>       0.50120145       0.16676079       0.30764167 </v>
    <v>       0.66822000       0.00107000       0.24272000 </v>
    <v>       0.83374116       0.16946272       0.30381090 </v>
    <v>       0.00044000       0.33497000       0.24240000 </v>
    <v>       0.16640462       0.50254777       0.30362740 </v>
    <v>       0.33469000       0.33305000       0.24267000 </v>
    <v>       0.50156301       0.49715214       0.30349304 </v>
    <v>       0.83495085       0.50423917       0.30240659 </v>
    <v>       0.16761919       0.83424967       0.30449006 </v>
    <v>       0.33342000       0.66555000       0.24261000 </v>
    <v>       0.83724831       0.83226544       0.30305123 </v>
    <v>       0.00064000       0.00119000       0.00199000 </v>
    <v>       0.99696510       0.00589455       0.36147297 </v>
    <v>       0.16843000       0.16962000       0.06269000 </v>
    <v>       0.33460000       0.00297000       0.00254000 </v>
    <v>       0.33027751       0.99813463       0.36272351 </v>
    <v>       0.50463000       0.16850000       0.06120000 </v>
    <v>       0.83272000       0.16670000       0.06193000 </v>
    <v>       0.00004000       0.33467000       0.00213000 </v>
    <v>       0.99914268       0.33280193       0.36059210 </v>
    <v>       0.16757000       0.49895000       0.06268000 </v>
    <v>       0.50099000       0.49896000       0.06206000 </v>
    <v>       0.83393000       0.50234000       0.06235000 </v>
    <v>       0.00121000       0.66785000       0.00188000 </v>
    <v>       0.99853816       0.66544501       0.36057215 </v>
    <v>       0.16792000       0.83462000       0.06228000 </v>
    <v>       0.33437000       0.66664000       0.00225000 </v>
    <v>       0.34066409       0.66409783       0.36146322 </v>
    <v>       0.50152000       0.83563000       0.06217000 </v>
    <v>       0.66753000       0.66705000       0.00175000 </v>
    <v>       0.66384397       0.66675293       0.36027299 </v>
    <v>       0.83293000       0.83584000       0.06235000 </v>
    <v>       0.00121000       0.00098000       0.12225000 </v>
    <v>       0.16700000       0.16811000       0.18239000 </v>
    <v>       0.33470000       0.00227000       0.12192000 </v>
    <v>       0.50174000       0.16716000       0.18263000 </v>
    <v>       0.83421000       0.16639000       0.18283000 </v>
    <v>       0.16964000       0.49868000       0.18209000 </v>
    <v>       0.50219000       0.50081000       0.18317000 </v>
    <v>       0.66741000       0.33395000       0.12233000 </v>
    <v>       0.83134000       0.50253000       0.18283000 </v>
    <v>       0.00132000       0.66795000       0.12253000 </v>
    <v>       0.16898000       0.83509000       0.18243000 </v>
    <v>       0.33446000       0.66703000       0.12223000 </v>
    <v>       0.49971000       0.83538000       0.18278000 </v>
    <v>       0.66698000       0.66840000       0.12259000 </v>
    <v>       0.83488000       0.83403000       0.18294000 </v>
    <v>       0.33558000       0.99863000       0.24353000 </v>
    <v>       0.66801000       0.33262000       0.24229000 </v>
    <v>       0.00448000       0.66739000       0.24217000 </v>
    <v>       0.49655519       0.83553756       0.30220330 </v>
    <v>       0.66521000       0.67351000       0.24327000 </v>
    <v>       0.66620000       0.99680000       0.00000000 </v>
    <v>       0.67593329       0.98953029       0.36299016 </v>
    <v>       0.33213000       0.33386000       0.00135000 </v>
    <v>       0.32407605       0.33930227       0.36512252 </v>
    <v>       0.67040000       0.33673000       0.00321000 </v>
    <v>       0.67646327       0.34272561       0.36667116 </v>
    <v>       0.66728000       0.99998000       0.12246000 </v>
    <v>       0.99806000       0.33495000       0.12235000 </v>
    <v>       0.33675000       0.33238000       0.12261000 </v>
    <v>       0.49908809       0.15936828       0.44487919 </v>
   </varray>
  </structure>
  <varray name="forces" >
   <v>       0.03887794      -0.02345173      -0.17530461 </v>
   <v>       0.00577940       0.00565751      -0.00088001 </v>
   <v>      -0.00482219      -0.01008629       0.01769935 </v>
   <v>      -0.00312879       0.10076784       0.04529125 </v>
   <v>       0.01228082       0.00758413      -0.01159501 </v>
   <v>       0.04584735       0.01910671      -0.15303775 </v>
   <v>       0.00139226      -0.00056105       0.00522340 </v>
   <v>       0.05296482      -0.06826667       0.02432629 </v>
   <v>      -0.00194099       0.00401606      -0.00334775 </v>
   <v>       0.00245324       0.00076968       0.00278843 </v>
   <v>       0.00667059      -0.00125481      -0.00698695 </v>
   <v>      -0.10106080      -0.03616265      -0.17852957 </v>
   <v>       0.00783308      -0.00809004      -0.00015288 </v>
   <v>      -0.00247017      -0.05150831       0.24694489 </v>
   <v>      -0.01786989       0.00117022       0.00195494 </v>
   <v>      -0.33139614      -0.27522446       0.01028740 </v>
   <v>      -0.02767982      -0.01791367       0.40570278 </v>
   <v>      -0.00618407      -0.00886432      -0.01137082 </v>
   <v>      -0.22142185      -0.15987946       0.60646351 </v>
   <v>       0.43366291       0.16351460       0.19099734 </v>
   <v>      -0.11315801       0.00109198       0.40710382 </v>
   <v>       0.01117752      -0.01011658      -0.01565221 </v>
   <v>      -0.25748246       0.32928512       0.00592206 </v>
   <v>       0.12342929       0.48308744       0.18925693 </v>
   <v>       0.13363336       0.09885443      -0.07564975 </v>
   <v>       0.13089614       0.03272506       0.08457531 </v>
   <v>      -0.00209581       0.00198896       0.00868584 </v>
   <v>      -0.00854345       0.02567909      -0.33646710 </v>
   <v>      -0.15344046      -0.00096841       0.22815654 </v>
   <v>      -0.00812583      -0.00602114      -0.00294005 </v>
   <v>      -0.28881410      -0.35817777       0.01854630 </v>
   <v>      -0.00311236      -0.09684762       0.45755857 </v>
   <v>       0.00457315       0.00972853      -0.01490708 </v>
   <v>       0.36565132      -0.34236056       0.00962932 </v>
   <v>       0.02068899       0.11355045      -0.03397095 </v>
   <v>      -0.00347616       0.00664320       0.09246714 </v>
   <v>       0.05499720       0.04164642       0.01376573 </v>
   <v>      -0.03592642      -0.03427769       0.26038740 </v>
   <v>       0.00773149       0.02290279       0.16246900 </v>
   <v>      -0.02059585      -0.01237625       0.18732121 </v>
   <v>       0.03110060       0.04456410       0.18325242 </v>
   <v>       0.04810733       0.00203569      -0.00345428 </v>
   <v>       0.03765347       0.03902735       0.16816888 </v>
   <v>      -0.05235555      -0.08806424      -0.08691601 </v>
   <v>       0.03938735       0.06532284       0.12599495 </v>
   <v>       0.11045078      -0.00766196      -0.04595254 </v>
   <v>       0.01648184      -0.00053417       0.05099965 </v>
   <v>      -0.07489844      -0.06459804       0.04389259 </v>
   <v>       0.00052310      -0.04826776       0.16865401 </v>
   <v>       0.14338201      -0.01483299      -0.05731668 </v>
   <v>      -0.08774329      -0.09789056      -0.06116648 </v>
   <v>       0.03372094      -0.01100982      -0.40236949 </v>
   <v>       0.00713014      -0.00966048      -0.00627859 </v>
   <v>      -0.16834456       0.15017354      -0.07782251 </v>
   <v>       0.08847896       0.42145298      -0.79554206 </v>
   <v>      -0.00101042      -0.01506650      -0.00429982 </v>
   <v>       0.32711911       0.01430684      -0.64778754 </v>
   <v>      -0.00539151      -0.00613124      -0.00147018 </v>
   <v>      -0.28455322      -0.35213168      -0.23248656 </v>
   <v>      -0.00430829      -0.00237024       0.00418578 </v>
   <v>      -0.10990926       0.16183637      -0.37484439 </v>
   <v>      -0.03154189      -0.03295986      -0.09765711 </v>
   <v>       0.09747504      -0.08641038      -0.51749791 </v>
   <v>      -0.00874951      -0.00849051       0.00498166 </v>
  </varray>
  <varray name="stress" >
   <v>     -19.30742876       0.48208151       0.06712816 </v>
   <v>       0.48208176     -19.22737402      -0.00144849 </v>
   <v>       0.06712921      -0.00144799      -4.00530823 </v>
  </varray>
  <energy>
   <i name="e_fr_energy">   -513.73673040 </i>
   <i name="e_wo_entrp">   -513.73673040 </i>
   <i name="e_0_energy">   -513.73673040 </i>
[...]
       <r>   -38.4658     0.0000    42.0000 </r>
       <r>   -38.2955     0.0000    42.0000 </r>
       <r>   -38.1253     0.0000    42.0000 </r>
       <r>   -37.9551     0.0000    42.0000 </r>
       <r>   -37.7848     0.0000    42.0000 </r>
       <r>   -37.6146     0.0000    42.0000 </r>
       <r>   -37.4444     0.0000    42.0000 </r>
       <r>   -37.2741     0.0000    42.0000 </r>
       <r>   -37.1039     0.0000    42.0000 </r>
       <r>   -36.9337     0.0000    42.0000 </r>
       <r>   -36.7634     0.0000    42.0000 </r>
       <r>   -36.5932     0.0000    42.0000 </r>
       <r>   -36.4230     0.0000    42.0000 </r>
       <r>   -36.2528     0.0000    42.0000 </r>
       <r>   -36.0825     0.0000    42.0000 </r>
       <r>   -35.9123     0.0000    42.0000 </r>
       <r>   -35.7421     0.0000    42.0000 </r>
       <r>   -35.5718     0.0000    42.0000 </r>
       <r>   -35.4016     0.0000    42.0000 </r>
       <r>   -35.2314     0.0000    42.0000 </r>
       <r>   -35.0611     0.0000    42.0000 </r>
       <r>   -34.8909     0.0000    42.0000 </r>
       <r>   -34.7207     0.0000    42.0000 </r>
       <r>   -34.5504     0.0000    42.0000 </r>
       <r>   -34.3802     0.0000    42.0000 </r>
       <r>   -34.2100     0.0000    42.0000 </r>
       <r>   -34.0397     0.0000    42.0000 </r>
       <r>   -33.8695     0.0000    42.0000 </r>
       <r>   -33.6993     0.0000    42.0000 </r>
       <r>   -33.5291     0.0000    42.0000 </r>
       <r>   -33.3588     0.0000    42.0000 </r>
       <r>   -33.1886     0.0000    42.0000 </r>
       <r>   -33.0184     0.0000    42.0000 </r>
       <r>   -32.8481     0.0000    42.0000 </r>
       <r>   -32.6779     0.0000    42.0000 </r>
       <r>   -32.5077     0.0000    42.0000 </r>
       <r>   -32.3374     0.0000    42.0000 </r>
       <r>   -32.1672     0.0000    42.0000 </r>
       <r>   -31.9970     0.0000    42.0000 </r>
       <r>   -31.8267     0.0000    42.0000 </r>
       <r>   -31.6565     0.0000    42.0000 </r>
       <r>   -31.4863     0.0000    42.0000 </r>
       <r>   -31.3160     0.0000    42.0000 </r>
       <r>   -31.1458     0.0000    42.0000 </r>
       <r>   -30.9756     0.0000    42.0000 </r>
       <r>   -30.8054     0.0000    42.0000 </r>
       <r>   -30.6351     0.0000    42.0000 </r>
       <r>   -30.4649     0.0000    42.0000 </r>
       <r>   -30.2947     0.0000    42.0000 </r>
       <r>   -30.1244     0.0000    42.0000 </r>
       <r>   -29.9542     0.0000    42.0000 </r>
       <r>   -29.7840     0.0000    42.0000 </r>
       <r>   -29.6137     0.0000    42.0000 </r>
       <r>   -29.4435     0.0000    42.0000 </r>
       <r>   -29.2733     0.0000    42.0000 </r>
       <r>   -29.1030     0.0000    42.0000 </r>
       <r>   -28.9328     0.0000    42.0000 </r>
       <r>   -28.7626     0.0000    42.0000 </r>
       <r>   -28.5923     0.0000    42.0000 </r>
       <r>   -28.4221     0.0000    42.0000 </r>
       <r>   -28.2519     0.0000    42.0000 </r>
       <r>   -28.0817     0.0000    42.0000 </r>
       <r>   -27.9114     0.0000    42.0000 </r>
       <r>   -27.7412     0.0000    42.0000 </r>
       <r>   -27.5710     0.0000    42.0000 </r>
       <r>   -27.4007     0.0000    42.0000 </r>
       <r>   -27.2305     0.0000    42.0000 </r>
       <r>   -27.0603     0.0000    42.0000 </r>
       <r>   -26.8900     0.0000    42.0000 </r>
       <r>   -26.7198     0.0000    42.0000 </r>
       <r>   -26.5496     0.0000    42.0000 </r>
       <r>   -26.3793     0.0000    42.0000 </r>
       <r>   -26.2091     0.0000    42.0000 </r>
       <r>   -26.0389     0.0000    42.0000 </r>
       <r>   -25.8686     0.0000    42.0000 </r>
       <r>   -25.6984     0.0000    42.0000 </r>
       <r>   -25.5282     0.0000    42.0000 </r>
       <r>   -25.3579     0.0000    42.0000 </r>
       <r>   -25.1877     0.0000    42.0000 </r>
       <r>   -25.0175     0.0000    42.0000 </r>
       <r>   -24.8473     0.0000    42.0000 </r>
       <r>   -24.6770     0.0000    42.0000 </r>
       <r>   -24.5068     0.0000    42.0000 </r>
       <r>   -24.3366     0.0000    42.0000 </r>
       <r>   -24.1663     0.0000    42.0000 </r>
       <r>   -23.9961     0.0000    42.0000 </r>
       <r>   -23.8259     0.0000    42.0000 </r>
       <r>   -23.6556     0.0000    42.0000 </r>
       <r>   -23.4854     0.0000    42.0000 </r>
       <r>   -23.3152     0.0000    42.0000 </r>
       <r>   -23.1449     0.0000    42.0000 </r>
       <r>   -22.9747     0.0000    42.0000 </r>
       <r>   -22.8045     0.0000    42.0000 </r>
       <r>   -22.6342     0.0000    42.0000 </r>
       <r>   -22.4640     0.0000    42.0000 </r>
       <r>   -22.2938     0.0000    42.0000 </r>
       <r>   -22.1236     0.0000    42.0000 </r>
       <r>   -21.9533     0.0000    42.0000 </r>
       <r>   -21.7831     0.0000    42.0000 </r>
       <r>   -21.6129     0.0000    42.0000 </r>
       <r>   -21.4426     0.0000    42.0000 </r>
       <r>   -21.2724     0.0000    42.0000 </r>
       <r>   -21.1022     0.0000    42.0000 </r>
       <r>   -20.9319     0.0000    42.0000 </r>
       <r>   -20.7617     0.0000    42.0000 </r>
       <r>   -20.5915     0.0000    42.0000 </r>
       <r>   -20.4212     0.0000    42.0000 </r>
       <r>   -20.2510     0.0000    42.0000 </r>
       <r>   -20.0808     0.0000    42.0000 </r>
       <r>   -19.9105     0.0000    42.0000 </r>
       <r>   -19.7403     0.0000    42.0000 </r>
       <r>   -19.5701     0.0000    42.0000 </r>
       <r>   -19.3999     0.0000    42.0000 </r>
       <r>   -19.2296     0.0000    42.0000 </r>
       <r>   -19.0594     0.0000    42.0000 </r>
       <r>   -18.8892     0.0000    42.0000 </r>
       <r>   -18.7189     0.0000    42.0000 </r>
       <r>   -18.5487     0.0000    42.0000 </r>
       <r>   -18.3785     0.0000    42.0000 </r>
       <r>   -18.2082     0.0000    42.0000 </r>
       <r>   -18.0380     0.0000    42.0000 </r>
       <r>   -17.8678     0.0000    42.0000 </r>
       <r>   -17.6975     0.0000    42.0000 </r>
       <r>   -17.5273     0.0000    42.0000 </r>
       <r>   -17.3571     0.0000    42.0000 </r>
       <r>   -17.1868     0.0000    42.0000 </r>
       <r>   -17.0166     0.0000    42.0000 </r>
       <r>   -16.8464     0.0000    42.0000 </r>
       <r>   -16.6761     0.0000    42.0000 </r>
       <r>   -16.5059     0.0000    42.0000 </r>
       <r>   -16.3357     0.0000    42.0000 </r>
       <r>   -16.1655     0.0000    42.0000 </r>
       <r>   -15.9952     0.0000    42.0000 </r>
       <r>   -15.8250     0.0000    42.0000 </r>
       <r>   -15.6548     0.0000    42.0000 </r>
       <r>   -15.4845     0.0000    42.0000 </r>
       <r>   -15.3143     5.8744    43.0000 </r>
       <r>   -15.1441    23.4974    47.0000 </r>
       <r>   -14.9738     0.0000    47.0000 </r>
       <r>   -14.8036     0.0000    47.0000 </r>
       <r>   -14.6334     0.0000    47.0000 </r>
       <r>   -14.4631     0.0000    47.0000 </r>
       <r>   -14.2929     0.0000    47.0000 </r>
       <r>   -14.1227     0.0000    47.0000 </r>
       <r>   -13.9524     0.0000    47.0000 </r>
       <r>   -13.7822     0.0000    47.0000 </r>
       <r>   -13.6120     0.0000    47.0000 </r>
       <r>   -13.4418     0.0000    47.0000 </r>
       <r>   -13.2715     0.0000    47.0000 </r>
       <r>   -13.1013     0.0000    47.0000 </r>
       <r>   -12.9311     0.0000    47.0000 </r>
       <r>   -12.7608     0.0000    47.0000 </r>
       <r>   -12.5906     0.0000    47.0000 </r>
       <r>   -12.4204     0.0000    47.0000 </r>
       <r>   -12.2501     0.0000    47.0000 </r>
       <r>   -12.0799     0.0000    47.0000 </r>
       <r>   -11.9097     0.0000    47.0000 </r>
       <r>   -11.7394     0.0000    47.0000 </r>
       <r>   -11.5692     0.0000    47.0000 </r>
       <r>   -11.3990     0.0000    47.0000 </r>
       <r>   -11.2287     0.0000    47.0000 </r>
       <r>   -11.0585     0.0000    47.0000 </r>
       <r>   -10.8883     0.0000    47.0000 </r>
       <r>   -10.7181     0.0000    47.0000 </r>
       <r>   -10.5478     0.0000    47.0000 </r>
       <r>   -10.3776     0.0000    47.0000 </r>
       <r>   -10.2074     0.0000    47.0000 </r>
       <r>   -10.0371     0.0000    47.0000 </r>
       <r>    -9.8669     0.0000    47.0000 </r>
       <r>    -9.6967     0.0000    47.0000 </r>
       <r>    -9.5264     0.0000    47.0000 </r>
       <r>    -9.3562     0.0000    47.0000 </r>
       <r>    -9.1860     0.0000    47.0000 </r>
       <r>    -9.0157     0.0000    47.0000 </r>
       <r>    -8.8455     0.0000    47.0000 </r>
       <r>    -8.6753     0.0000    47.0000 </r>
       <r>    -8.5050     0.0000    47.0000 </r>
       <r>    -8.3348     0.0000    47.0000 </r>
       <r>    -8.1646     0.0000    47.0000 </r>
       <r>    -7.9944     0.0000    47.0000 </r>
       <r>    -7.8241     0.0000    47.0000 </r>
       <r>    -7.6539     0.0000    47.0000 </r>
       <r>    -7.4837     0.0000    47.0000 </r>
       <r>    -7.3134     5.8744    48.0000 </r>
       <r>    -7.1432     0.0000    48.0000 </r>
       <r>    -6.9730     1.0842    48.0325 </r>
       <r>    -6.8027     1.4794    48.3217 </r>
       <r>    -6.6325     1.7165    48.5872 </r>
       <r>    -6.4623     1.1281    48.8503 </r>
       <r>    -6.2920     1.9356    49.1107 </r>
       <r>    -6.1218     1.6053    49.4121 </r>
       <r>    -5.9516     3.3537    49.7423 </r>
       <r>    -5.7813     3.5889    50.2248 </r>
       <r>    -5.6111     4.1282    50.8856 </r>
       <r>    -5.4409     2.3964    51.4314 </r>
       <r>    -5.2706     3.2232    51.8349 </r>
       <r>    -5.1004     3.2309    52.3913 </r>
       <r>    -4.9302     7.7115    53.1477 </r>
       <r>    -4.7600     3.8711    53.9878 </r>
       <r>    -4.5897     5.3615    54.7013 </r>
       <r>    -4.4195     4.1527    55.4852 </r>
       <r>    -4.2493     4.0928    55.9437 </r>
       <r>    -4.0790    11.1346    57.3781 </r>
       <r>    -3.9088     6.0413    58.7180 </r>
       <r>    -3.7386     9.0544    60.0526 </r>
       <r>    -3.5683     8.1382    60.9989 </r>
       <r>    -3.3981    10.8247    62.2141 </r>
       <r>    -3.2279    15.9579    64.5633 </r>
       <r>    -3.0576    24.4640    67.7988 </r>
       <r>    -2.8874    18.8273    70.6199 </r>
       <r>    -2.7172    36.1296    74.9517 </r>
       <r>    -2.5469    15.4992    77.4777 </r>
       <r>    -2.3767    56.4874    82.5926 </r>
       <r>    -2.2065    51.7877    88.0617 </r>
       <r>    -2.0363    52.7355    93.6446 </r>
       <r>    -1.8660    58.6601    99.1022 </r>
       <r>    -1.6958    51.4669   104.7251 </r>
       <r>    -1.5256    74.8369   110.7720 </r>
       <r>    -1.3553    94.0733   118.9524 </r>
       <r>    -1.1851    87.8647   128.0620 </r>
       <r>    -1.0149   105.0859   136.7417 </r>
       <r>    -0.8446   100.9424   145.6908 </r>
       <r>    -0.6744   112.5660   155.1886 </r>
       <r>    -0.5042   107.5810   165.7260 </r>
       <r>    -0.3339   117.6850   176.3154 </r>
       <r>    -0.1637   127.2232   187.9427 </r>
       <r>     0.0065    94.6204   198.0704 </r>
       <r>     0.1768    74.8223   206.1400 </r>
       <r>     0.3470    68.9864   213.3194 </r>
       <r>     0.5172    50.9733   219.0855 </r>
       <r>     0.6874    55.7728   223.8891 </r>
       <r>     0.8577    52.0183   229.2775 </r>
       <r>     1.0279    55.9678   234.9819 </r>
       <r>     1.1981    80.9880   242.7606 </r>
       <r>     1.3684   119.0395   251.9855 </r>
       <r>     1.5386    95.4403   261.6067 </r>
       <r>     1.7088   123.5873   272.6090 </r>
       <r>     1.8791   130.0311   285.2652 </r>
       <r>     2.0493   139.3526   297.3672 </r>
       <r>     2.2195   139.3626   312.1012 </r>
       <r>     2.3898   158.8125   327.9806 </r>
       <r>     2.5600   163.4009   344.8678 </r>
       <r>     2.7302   140.0225   359.1004 </r>
       <r>     2.9005   116.1088   369.6616 </r>
       <r>     3.0707    42.0994   375.7195 </r>
       <r>     3.2409     0.3671   376.0000 </r>
       <r>     3.4112     0.0000   376.0000 </r>
       <r>     3.5814     0.0000   376.0000 </r>
       <r>     3.7516     0.0000   376.0000 </r>
       <r>     3.9218     0.0000   376.0000 </r>
       <r>     4.0921     0.0000   376.0000 </r>
       <r>     4.2623     0.0000   376.0000 </r>
       <r>     4.4325     0.0000   376.0000 </r>
       <r>     4.6028     0.0000   376.0000 </r>
       <r>     4.7730     0.0000   376.0000 </r>
       <r>     4.9432     0.0000   376.0000 </r>
       <r>     5.1135     0.0000   376.0000 </r>
       <r>     5.2837     0.0000   376.0000 </r>
       <r>     5.4539     0.0000   376.0000 </r>
      </set>
     </set>
    </array>
   </total>
  </dos>
 </calculation>
 <structure name="finalpos" >
  <crystal>
   <varray name="basis" >
    <v>       8.53269958       0.00000000       0.00000000 </v>
    <v>      -0.00051933       8.49699972       0.00000000 </v>
    <v>       0.00000000       0.00000000      23.59499931 </v>
   </varray>
   <i name="volume">   1710.69280467 </i>
   <varray name="rec_basis" >
    <v>       0.11719620       0.00000716       0.00000000 </v>
    <v>       0.00000000       0.11768860       0.00000000 </v>
    <v>       0.00000000       0.00000000       0.04238186 </v>
   </varray>
  </crystal>
  <varray name="positions" >
   <v>       0.00086000       0.99993000       0.24271000 </v>
   <v>       0.16626769       0.16575644       0.30369500 </v>
   <v>       0.50120145       0.16676079       0.30764167 </v>
   <v>       0.66822000       0.00107000       0.24272000 </v>
   <v>       0.83374116       0.16946272       0.30381090 </v>
   <v>       0.00044000       0.33497000       0.24240000 </v>
   <v>       0.16640462       0.50254777       0.30362740 </v>
   <v>       0.33469000       0.33305000       0.24267000 </v>
   <v>       0.50156301       0.49715214       0.30349304 </v>
   <v>       0.83495085       0.50423917       0.30240659 </v>
   <v>       0.16761919       0.83424967       0.30449006 </v>
   <v>       0.33342000       0.66555000       0.24261000 </v>
   <v>       0.83724831       0.83226544       0.30305123 </v>
   <v>       0.00064000       0.00119000       0.00199000 </v>
   <v>       0.99696510       0.00589455       0.36147297 </v>
   <v>       0.16843000       0.16962000       0.06269000 </v>
   <v>       0.33460000       0.00297000       0.00254000 </v>
   <v>       0.33027751       0.99813463       0.36272351 </v>
   <v>       0.50463000       0.16850000       0.06120000 </v>
   <v>       0.83272000       0.16670000       0.06193000 </v>
   <v>       0.00004000       0.33467000       0.00213000 </v>
   <v>       0.99914268       0.33280193       0.36059210 </v>
   <v>       0.16757000       0.49895000       0.06268000 </v>
   <v>       0.50099000       0.49896000       0.06206000 </v>
   <v>       0.83393000       0.50234000       0.06235000 </v>
   <v>       0.00121000       0.66785000       0.00188000 </v>
   <v>       0.99853816       0.66544501       0.36057215 </v>
   <v>       0.16792000       0.83462000       0.06228000 </v>
   <v>       0.33437000       0.66664000       0.00225000 </v>
   <v>       0.34066409       0.66409783       0.36146322 </v>
   <v>       0.50152000       0.83563000       0.06217000 </v>
   <v>       0.66753000       0.66705000       0.00175000 </v>
   <v>       0.66384397       0.66675293       0.36027299 </v>
   <v>       0.83293000       0.83584000       0.06235000 </v>
   <v>       0.00121000       0.00098000       0.12225000 </v>
   <v>       0.16700000       0.16811000       0.18239000 </v>
   <v>       0.33470000       0.00227000       0.12192000 </v>
   <v>       0.50174000       0.16716000       0.18263000 </v>
   <v>       0.83421000       0.16639000       0.18283000 </v>
   <v>       0.16964000       0.49868000       0.18209000 </v>
   <v>       0.50219000       0.50081000       0.18317000 </v>
   <v>       0.66741000       0.33395000       0.12233000 </v>
   <v>       0.83134000       0.50253000       0.18283000 </v>
   <v>       0.00132000       0.66795000       0.12253000 </v>
   <v>       0.16898000       0.83509000       0.18243000 </v>
   <v>       0.33446000       0.66703000       0.12223000 </v>
   <v>       0.49971000       0.83538000       0.18278000 </v>
   <v>       0.66698000       0.66840000       0.12259000 </v>
   <v>       0.83488000       0.83403000       0.18294000 </v>
   <v>       0.33558000       0.99863000       0.24353000 </v>
   <v>       0.66801000       0.33262000       0.24229000 </v>
   <v>       0.00448000       0.66739000       0.24217000 </v>
   <v>       0.49655519       0.83553756       0.30220330 </v>
   <v>       0.66521000       0.67351000       0.24327000 </v>
   <v>       0.66620000       0.99680000       0.00000000 </v>
   <v>       0.67593329       0.98953029       0.36299016 </v>
   <v>       0.33213000       0.33386000       0.00135000 </v>
   <v>       0.32407605       0.33930227       0.36512252 </v>
   <v>       0.67040000       0.33673000       0.00321000 </v>
   <v>       0.67646327       0.34272561       0.36667116 </v>
   <v>       0.66728000       0.99998000       0.12246000 </v>
   <v>       0.99806000       0.33495000       0.12235000 </v>
   <v>       0.33675000       0.33238000       0.12261000 </v>
   <v>       0.49908809       0.15936828       0.44487919 </v>
  </varray>
  <varray name="selective"  type="logical" >
   <v type="logical" >  F  F  F </v>
   <v type="logical" >  T  T  T </v>
   <v type="logical" >  T  T  T </v>
   <v type="logical" >  F  F  F </v>
   <v type="logical" >  T  T  T </v>
   <v type="logical" >  F  F  F </v>
   <v type="logical" >  T  T  T </v>
   <v type="logical" >  F  F  F </v>
   <v type="logical" >  T  T  T </v>
   <v type="logical" >  T  T  T </v>
   <v type="logical" >  T  T  T </v>
   <v type="logical" >  F  F  F </v>
   <v type="logical" >  T  T  T </v>
   <v type="logical" >  F  F  F </v>
   <v type="logical" >  T  T  T </v>
   <v type="logical" >  F  F  F </v>
   <v type="logical" >  F  F  F </v>
   <v type="logical" >  T  T  T </v>
   <v type="logical" >  F  F  F </v>
   <v type="logical" >  F  F  F </v>
   <v type="logical" >  F  F  F </v>
   <v type="logical" >  T  T  T </v>
   <v type="logical" >  F  F  F </v>
   <v type="logical" >  F  F  F </v>
   <v type="logical" >  F  F  F </v>
   <v type="logical" >  F  F  F </v>
   <v type="logical" >  T  T  T </v>
   <v type="logical" >  F  F  F </v>
   <v type="logical" >  F  F  F </v>
   <v type="logical" >  T  T  T </v>
   <v type="logical" >  F  F  F </v>
   <v type="logical" >  F  F  F </v>
   <v type="logical" >  T  T  T </v>
   <v type="logical" >  F  F  F </v>
   <v type="logical" >  F  F  F </v>
   <v type="logical" >  F  F  F </v>
   <v type="logical" >  F  F  F </v>
   <v type="logical" >  F  F  F </v>
   <v type="logical" >  F  F  F </v>
   <v type="logical" >  F  F  F </v>
   <v type="logical" >  F  F  F </v>
   <v type="logical" >  F  F  F </v>
   <v type="logical" >  F  F  F </v>
   <v type="logical" >  F  F  F </v>
   <v type="logical" >  F  F  F </v>
   <v type="logical" >  F  F  F </v>
   <v type="logical" >  F  F  F </v>
   <v type="logical" >  F  F  F </v>
   <v type="logical" >  F  F  F </v>
   <v type="logical" >  F  F  F </v>
   <v type="logical" >  F  F  F </v>
   <v type="logical" >  F  F  F </v>
   <v type="logical" >  T  T  T </v>
   <v type="logical" >  F  F  F </v>
   <v type="logical" >  F  F  F </v>
   <v type="logical" >  T  T  T </v>
   <v type="logical" >  F  F  F </v>
   <v type="logical" >  T  T  T </v>
   <v type="logical" >  F  F  F </v>
   <v type="logical" >  T  T  T </v>
   <v type="logical" >  F  F  F </v>
   <v type="logical" >  F  F  F </v>
   <v type="logical" >  F  F  F </v>
   <v type="logical" >  T  T  T </v>
  </varray>
  <nose>
   <v>      -3.00000000       0.00000000       0.00010000       0.00010000 </v>
  </nose>
 </structure>
</modeling>
