  62  62   0   0
  0.2759182E+02  0.8532700E-09  0.8497000E-09  0.2359500E-08  0.5000000E-15
  1.000000000000000E-004
  CAR 
 ni3al                                   
      5.35873107    -45.73948051  301      0.84274260      1.00000000
    -45.739  0.0000E+00  0.0000E+00  0.0000E+00  0.0000E+00
    -45.569  0.0000E+00  0.0000E+00  0.0000E+00  0.0000E+00
    -45.399  0.0000E+00  0.0000E+00  0.0000E+00  0.0000E+00
    -45.228  0.0000E+00  0.0000E+00  0.0000E+00  0.0000E+00
    -45.058  0.0000E+00  0.0000E+00  0.0000E+00  0.0000E+00
    -44.888  0.0000E+00  0.0000E+00  0.0000E+00  0.0000E+00
    -44.718  0.0000E+00 -0.1108E-33  0.0000E+00 -0.1887E-34
    -44.547  0.0000E+00 -0.9687E-26  0.0000E+00 -0.1650E-26
    -44.377 -0.7170E-37 -0.6365E-19 -0.1221E-37 -0.1084E-19
    -44.207 -0.1579E-28 -0.3033E-13 -0.2689E-29 -0.5166E-14
    -44.036 -0.2586E-21 -0.1106E-08 -0.4405E-22 -0.1884E-09
    -43.866 -0.3040E-15 -0.3014E-05 -0.5179E-16 -0.5136E-06
    -43.696 -0.2682E-10 -0.6123E-03 -0.4568E-11 -0.1048E-03
    -43.525 -0.1738E-06 -0.6096E-02 -0.2960E-07 -0.1143E-02
    -43.355 -0.8602E-04  0.9420E-01 -0.1468E-04  0.1490E-01
    -43.185 -0.3265E-02  0.2410E+00 -0.5708E-03  0.5595E-01
    -43.014  0.1887E-01  0.2600E-01  0.2643E-02  0.6038E-01
    -42.844  0.1943E+00  0.3410E-01  0.3574E-01  0.6618E-01
    -42.674  0.9118E-01  0.9132E-01  0.5127E-01  0.8174E-01
    -42.503 -0.8252E-02  0.1674E-01  0.4987E-01  0.8459E-01
    -42.333  0.4623E-02  0.2468E-01  0.5065E-01  0.8879E-01
    -42.163  0.7245E-01  0.7904E-02  0.6299E-01  0.9014E-01
    -41.992  0.8653E-01 -0.7906E-03  0.7773E-01  0.9001E-01
    -41.822  0.2232E+00 -0.3263E-04  0.1157E+00  0.9000E-01
    -41.652  0.6415E-01 -0.5840E-07  0.1267E+00  0.9000E-01
    -41.481  0.2116E-01 -0.6798E-11  0.1303E+00  0.9000E-01
    -41.311 -0.1434E-02 -0.3497E-11  0.1300E+00  0.9000E-01
    -41.141 -0.1684E-03 -0.4198E-07  0.1300E+00  0.9000E-01
    -40.970 -0.6316E-06 -0.3306E-04  0.1300E+00  0.8999E-01
    -40.800 -0.3066E-06 -0.1156E-02  0.1300E+00  0.8980E-01
    -40.630 -0.1148E-03  0.1127E-01  0.1300E+00  0.9172E-01
    -40.459 -0.1318E-02  0.2749E-01  0.1298E+00  0.9640E-01
    -40.289  0.2013E-01  0.1154E-01  0.1332E+00  0.9836E-01
    -40.119  0.3415E-01  0.6020E-01  0.1390E+00  0.1086E+00
    -39.948  0.6675E-02  0.7310E-01  0.1401E+00  0.1211E+00
    -39.778 -0.7762E-03  0.8076E-01  0.1400E+00  0.1348E+00
    -39.608 -0.3085E-04  0.3114E-01  0.1400E+00  0.1401E+00
    -39.437 -0.5410E-07 -0.3923E-03  0.1400E+00  0.1401E+00
    -39.267 -0.6148E-11 -0.3629E-03  0.1400E+00  0.1400E+00
    -39.097 -0.5215E-16 -0.2509E-05  0.1400E+00  0.1400E+00
    -38.926  0.0000E+00 -0.1087E-08  0.1400E+00  0.1400E+00
    -38.756  0.0000E+00 -0.3331E-13  0.1400E+00  0.1400E+00
    -38.586  0.0000E+00  0.0000E+00  0.1400E+00  0.1400E+00
    -38.415  0.0000E+00  0.0000E+00  0.1400E+00  0.1400E+00
    -38.245  0.0000E+00  0.0000E+00  0.1400E+00  0.1400E+00
    -38.075  0.0000E+00  0.0000E+00  0.1400E+00  0.1400E+00
    -37.904  0.0000E+00  0.0000E+00  0.1400E+00  0.1400E+00
    -37.734  0.0000E+00  0.0000E+00  0.1400E+00  0.1400E+00
    -37.564  0.0000E+00  0.0000E+00  0.1400E+00  0.1400E+00
    -37.393  0.0000E+00  0.0000E+00  0.1400E+00  0.1400E+00
    -37.223  0.0000E+00  0.0000E+00  0.1400E+00  0.1400E+00
    -37.053  0.0000E+00  0.0000E+00  0.1400E+00  0.1400E+00
    -36.882  0.0000E+00  0.0000E+00  0.1400E+00  0.1400E+00
    -36.712  0.0000E+00  0.0000E+00  0.1400E+00  0.1400E+00
    -36.542  0.0000E+00  0.0000E+00  0.1400E+00  0.1400E+00
    -36.371  0.0000E+00  0.0000E+00  0.1400E+00  0.1400E+00
    -36.201  0.0000E+00  0.0000E+00  0.1400E+00  0.1400E+00
    -36.031  0.0000E+00  0.0000E+00  0.1400E+00  0.1400E+00
    -35.860  0.0000E+00  0.0000E+00  0.1400E+00  0.1400E+00
    -35.690  0.0000E+00  0.0000E+00  0.1400E+00  0.1400E+00
    -35.520  0.0000E+00  0.0000E+00  0.1400E+00  0.1400E+00
    -35.350  0.0000E+00  0.0000E+00  0.1400E+00  0.1400E+00
    -35.179  0.0000E+00  0.0000E+00  0.1400E+00  0.1400E+00
    -35.009  0.0000E+00  0.0000E+00  0.1400E+00  0.1400E+00
    -34.839  0.0000E+00  0.0000E+00  0.1400E+00  0.1400E+00
    -34.668  0.0000E+00  0.0000E+00  0.1400E+00  0.1400E+00
    -34.498  0.0000E+00  0.0000E+00  0.1400E+00  0.1400E+00
    -34.328  0.0000E+00  0.0000E+00  0.1400E+00  0.1400E+00
    -34.157  0.0000E+00  0.0000E+00  0.1400E+00  0.1400E+00
    -33.987  0.0000E+00  0.0000E+00  0.1400E+00  0.1400E+00
    -33.817  0.0000E+00  0.0000E+00  0.1400E+00  0.1400E+00
    -33.646  0.0000E+00  0.0000E+00  0.1400E+00  0.1400E+00
    -33.476  0.0000E+00  0.0000E+00  0.1400E+00  0.1400E+00
    -33.306  0.0000E+00  0.0000E+00  0.1400E+00  0.1400E+00
    -33.135  0.0000E+00  0.0000E+00  0.1400E+00  0.1400E+00
    -32.965  0.0000E+00  0.0000E+00  0.1400E+00  0.1400E+00
    -32.795  0.0000E+00  0.0000E+00  0.1400E+00  0.1400E+00
    -32.624  0.0000E+00  0.0000E+00  0.1400E+00  0.1400E+00
    -32.454  0.0000E+00  0.0000E+00  0.1400E+00  0.1400E+00
    -32.284  0.0000E+00  0.0000E+00  0.1400E+00  0.1400E+00
    -32.113  0.0000E+00  0.0000E+00  0.1400E+00  0.1400E+00
    -31.943  0.0000E+00  0.0000E+00  0.1400E+00  0.1400E+00
    -31.773  0.0000E+00  0.0000E+00  0.1400E+00  0.1400E+00
    -31.602  0.0000E+00  0.0000E+00  0.1400E+00  0.1400E+00
    -31.432  0.0000E+00  0.0000E+00  0.1400E+00  0.1400E+00
    -31.262  0.0000E+00  0.0000E+00  0.1400E+00  0.1400E+00
    -31.091  0.0000E+00  0.0000E+00  0.1400E+00  0.1400E+00
    -30.921  0.0000E+00  0.0000E+00  0.1400E+00  0.1400E+00
    -30.751  0.0000E+00  0.0000E+00  0.1400E+00  0.1400E+00
    -30.580  0.0000E+00  0.0000E+00  0.1400E+00  0.1400E+00
    -30.410  0.0000E+00  0.0000E+00  0.1400E+00  0.1400E+00
    -30.240  0.0000E+00  0.0000E+00  0.1400E+00  0.1400E+00
    -30.069  0.0000E+00  0.0000E+00  0.1400E+00  0.1400E+00
    -29.899  0.0000E+00  0.0000E+00  0.1400E+00  0.1400E+00
    -29.729  0.0000E+00  0.0000E+00  0.1400E+00  0.1400E+00
    -29.558  0.0000E+00  0.0000E+00  0.1400E+00  0.1400E+00
    -29.388  0.0000E+00  0.0000E+00  0.1400E+00  0.1400E+00
    -29.218  0.0000E+00  0.0000E+00  0.1400E+00  0.1400E+00
    -29.047  0.0000E+00  0.0000E+00  0.1400E+00  0.1400E+00
    -28.877  0.0000E+00  0.0000E+00  0.1400E+00  0.1400E+00
    -28.707  0.0000E+00  0.0000E+00  0.1400E+00  0.1400E+00
    -28.536  0.0000E+00  0.0000E+00  0.1400E+00  0.1400E+00
    -28.366  0.0000E+00  0.0000E+00  0.1400E+00  0.1400E+00
    -28.196  0.0000E+00  0.0000E+00  0.1400E+00  0.1400E+00
    -28.025  0.0000E+00  0.0000E+00  0.1400E+00  0.1400E+00
    -27.855  0.0000E+00  0.0000E+00  0.1400E+00  0.1400E+00
    -27.685  0.0000E+00  0.0000E+00  0.1400E+00  0.1400E+00
    -27.514  0.0000E+00  0.0000E+00  0.1400E+00  0.1400E+00
    -27.344  0.0000E+00  0.0000E+00  0.1400E+00  0.1400E+00
    -27.174  0.0000E+00  0.0000E+00  0.1400E+00  0.1400E+00
    -27.003  0.0000E+00  0.0000E+00  0.1400E+00  0.1400E+00
    -26.833  0.0000E+00  0.0000E+00  0.1400E+00  0.1400E+00
    -26.663  0.0000E+00  0.0000E+00  0.1400E+00  0.1400E+00
    -26.492  0.0000E+00  0.0000E+00  0.1400E+00  0.1400E+00
    -26.322  0.0000E+00  0.0000E+00  0.1400E+00  0.1400E+00
    -26.152  0.0000E+00  0.0000E+00  0.1400E+00  0.1400E+00
    -25.982  0.0000E+00  0.0000E+00  0.1400E+00  0.1400E+00
    -25.811  0.0000E+00  0.0000E+00  0.1400E+00  0.1400E+00
    -25.641  0.0000E+00  0.0000E+00  0.1400E+00  0.1400E+00
    -25.471  0.0000E+00  0.0000E+00  0.1400E+00  0.1400E+00
    -25.300  0.0000E+00  0.0000E+00  0.1400E+00  0.1400E+00
    -25.130  0.0000E+00  0.0000E+00  0.1400E+00  0.1400E+00
    -24.960  0.0000E+00  0.0000E+00  0.1400E+00  0.1400E+00
    -24.789  0.0000E+00  0.0000E+00  0.1400E+00  0.1400E+00
    -24.619  0.0000E+00  0.0000E+00  0.1400E+00  0.1400E+00
    -24.449  0.0000E+00  0.0000E+00  0.1400E+00  0.1400E+00
    -24.278  0.0000E+00  0.0000E+00  0.1400E+00  0.1400E+00
    -24.108  0.0000E+00  0.0000E+00  0.1400E+00  0.1400E+00
    -23.938  0.0000E+00  0.0000E+00  0.1400E+00  0.1400E+00
    -23.767  0.0000E+00  0.0000E+00  0.1400E+00  0.1400E+00
    -23.597  0.0000E+00  0.0000E+00  0.1400E+00  0.1400E+00
    -23.427  0.0000E+00  0.0000E+00  0.1400E+00  0.1400E+00
    -23.256  0.0000E+00  0.0000E+00  0.1400E+00  0.1400E+00
    -23.086  0.0000E+00  0.0000E+00  0.1400E+00  0.1400E+00
    -22.916  0.0000E+00  0.0000E+00  0.1400E+00  0.1400E+00
    -22.745  0.0000E+00  0.0000E+00  0.1400E+00  0.1400E+00
    -22.575  0.0000E+00  0.0000E+00  0.1400E+00  0.1400E+00
    -22.405  0.0000E+00  0.0000E+00  0.1400E+00  0.1400E+00
    -22.234  0.0000E+00  0.0000E+00  0.1400E+00  0.1400E+00
    -22.064  0.0000E+00  0.0000E+00  0.1400E+00  0.1400E+00
    -21.894  0.0000E+00  0.0000E+00  0.1400E+00  0.1400E+00
    -21.723  0.0000E+00  0.0000E+00  0.1400E+00  0.1400E+00
    -21.553  0.0000E+00  0.0000E+00  0.1400E+00  0.1400E+00
    -21.383  0.0000E+00  0.0000E+00  0.1400E+00  0.1400E+00
    -21.212  0.0000E+00  0.0000E+00  0.1400E+00  0.1400E+00
    -21.042  0.0000E+00  0.0000E+00  0.1400E+00  0.1400E+00
    -20.872  0.0000E+00  0.0000E+00  0.1400E+00  0.1400E+00
    -20.701  0.0000E+00  0.0000E+00  0.1400E+00  0.1400E+00
    -20.531  0.0000E+00  0.0000E+00  0.1400E+00  0.1400E+00
    -20.361  0.0000E+00  0.0000E+00  0.1400E+00  0.1400E+00
    -20.190  0.0000E+00  0.0000E+00  0.1400E+00  0.1400E+00
    -20.020  0.0000E+00  0.0000E+00  0.1400E+00  0.1400E+00
    -19.850  0.0000E+00  0.0000E+00  0.1400E+00  0.1400E+00
    -19.679  0.0000E+00  0.0000E+00  0.1400E+00  0.1400E+00
    -19.509  0.0000E+00  0.0000E+00  0.1400E+00  0.1400E+00
    -19.339  0.0000E+00  0.0000E+00  0.1400E+00  0.1400E+00
    -19.168  0.0000E+00  0.0000E+00  0.1400E+00  0.1400E+00
    -18.998  0.0000E+00  0.0000E+00  0.1400E+00  0.1400E+00
    -18.828  0.0000E+00  0.0000E+00  0.1400E+00  0.1400E+00
    -18.657  0.0000E+00  0.0000E+00  0.1400E+00  0.1400E+00
    -18.487  0.0000E+00  0.0000E+00  0.1400E+00  0.1400E+00
    -18.317  0.0000E+00  0.0000E+00  0.1400E+00  0.1400E+00
    -18.146  0.0000E+00  0.0000E+00  0.1400E+00  0.1400E+00
    -17.976  0.0000E+00  0.0000E+00  0.1400E+00  0.1400E+00
    -17.806  0.0000E+00  0.0000E+00  0.1400E+00  0.1400E+00
    -17.635  0.0000E+00  0.0000E+00  0.1400E+00  0.1400E+00
    -17.465  0.0000E+00  0.0000E+00  0.1400E+00  0.1400E+00
    -17.295  0.0000E+00  0.0000E+00  0.1400E+00  0.1400E+00
    -17.124  0.0000E+00  0.0000E+00  0.1400E+00  0.1400E+00
    -16.954  0.0000E+00  0.0000E+00  0.1400E+00  0.1400E+00
    -16.784  0.0000E+00  0.0000E+00  0.1400E+00  0.1400E+00
    -16.613  0.0000E+00  0.0000E+00  0.1400E+00  0.1400E+00
    -16.443  0.0000E+00  0.0000E+00  0.1400E+00  0.1400E+00
    -16.273  0.0000E+00  0.0000E+00  0.1400E+00  0.1400E+00
    -16.103  0.0000E+00  0.0000E+00  0.1400E+00  0.1400E+00
    -15.932  0.0000E+00  0.0000E+00  0.1400E+00  0.1400E+00
    -15.762  0.0000E+00  0.0000E+00  0.1400E+00  0.1400E+00
    -15.592  0.0000E+00  0.0000E+00  0.1400E+00  0.1400E+00
    -15.421  0.0000E+00  0.0000E+00  0.1400E+00  0.1400E+00
    -15.251  0.0000E+00  0.0000E+00  0.1400E+00  0.1400E+00
    -15.081  0.0000E+00  0.0000E+00  0.1400E+00  0.1400E+00
    -14.910  0.0000E+00  0.0000E+00  0.1400E+00  0.1400E+00
    -14.740  0.0000E+00  0.0000E+00  0.1400E+00  0.1400E+00
    -14.570  0.0000E+00  0.0000E+00  0.1400E+00  0.1400E+00
    -14.399  0.0000E+00  0.0000E+00  0.1400E+00  0.1400E+00
    -14.229  0.0000E+00  0.0000E+00  0.1400E+00  0.1400E+00
    -14.059  0.0000E+00  0.0000E+00  0.1400E+00  0.1400E+00
    -13.888  0.0000E+00  0.0000E+00  0.1400E+00  0.1400E+00
    -13.718  0.0000E+00  0.0000E+00  0.1400E+00  0.1400E+00
    -13.548  0.0000E+00  0.0000E+00  0.1400E+00  0.1400E+00
    -13.377  0.0000E+00  0.0000E+00  0.1400E+00  0.1400E+00
    -13.207  0.0000E+00  0.0000E+00  0.1400E+00  0.1400E+00
    -13.037  0.0000E+00  0.0000E+00  0.1400E+00  0.1400E+00
    -12.866  0.0000E+00  0.0000E+00  0.1400E+00  0.1400E+00
    -12.696  0.0000E+00  0.0000E+00  0.1400E+00  0.1400E+00
    -12.526  0.0000E+00  0.0000E+00  0.1400E+00  0.1400E+00
    -12.355  0.0000E+00  0.0000E+00  0.1400E+00  0.1400E+00
    -12.185  0.0000E+00  0.0000E+00  0.1400E+00  0.1400E+00
    -12.015  0.0000E+00  0.0000E+00  0.1400E+00  0.1400E+00
    -11.844  0.0000E+00  0.0000E+00  0.1400E+00  0.1400E+00
    -11.674  0.0000E+00  0.0000E+00  0.1400E+00  0.1400E+00
    -11.504  0.0000E+00  0.0000E+00  0.1400E+00  0.1400E+00
    -11.333  0.0000E+00  0.0000E+00  0.1400E+00  0.1400E+00
    -11.163  0.0000E+00  0.0000E+00  0.1400E+00  0.1400E+00
    -10.993  0.0000E+00  0.0000E+00  0.1400E+00  0.1400E+00
    -10.822  0.0000E+00  0.0000E+00  0.1400E+00  0.1400E+00
    -10.652  0.0000E+00  0.0000E+00  0.1400E+00  0.1400E+00
    -10.482  0.0000E+00  0.0000E+00  0.1400E+00  0.1400E+00
    -10.311  0.0000E+00  0.0000E+00  0.1400E+00  0.1400E+00
    -10.141  0.0000E+00  0.0000E+00  0.1400E+00  0.1400E+00
     -9.971  0.0000E+00  0.0000E+00  0.1400E+00  0.1400E+00
     -9.800  0.0000E+00  0.0000E+00  0.1400E+00  0.1400E+00
     -9.630  0.0000E+00  0.0000E+00  0.1400E+00  0.1400E+00
     -9.460  0.0000E+00  0.0000E+00  0.1400E+00  0.1400E+00
     -9.289  0.0000E+00  0.0000E+00  0.1400E+00  0.1400E+00
     -9.119  0.0000E+00  0.0000E+00  0.1400E+00  0.1400E+00
     -8.949  0.0000E+00  0.0000E+00  0.1400E+00  0.1400E+00
     -8.778  0.0000E+00  0.0000E+00  0.1400E+00  0.1400E+00
     -8.608 -0.3857E-32 -0.2111E-37  0.1400E+00  0.1400E+00
     -8.438 -0.1387E-24 -0.3813E-29  0.1400E+00  0.1400E+00
     -8.267 -0.3687E-18 -0.5117E-22  0.1400E+00  0.1400E+00
     -8.097 -0.6881E-13 -0.4905E-16  0.1400E+00  0.1400E+00
     -7.927 -0.9344E-09 -0.3463E-11  0.1400E+00  0.1400E+00
     -7.756 -0.8451E-06 -0.1703E-07  0.1400E+00  0.1400E+00
     -7.586 -0.4207E-04 -0.5325E-05  0.1400E+00  0.1400E+00
     -7.416  0.1311E-03 -0.7063E-04  0.1400E+00  0.1400E+00
     -7.245  0.2793E-02  0.6829E-03  0.1405E+00  0.1401E+00
     -7.075  0.5942E-02  0.4431E-02  0.1415E+00  0.1409E+00
     -6.905  0.2511E-02  0.5219E-02  0.1419E+00  0.1417E+00
     -6.735  0.5869E-02  0.2058E-02  0.1429E+00  0.1421E+00
     -6.564  0.8058E-02  0.8291E-02  0.1443E+00  0.1435E+00
     -6.394  0.1038E-02  0.5199E-02  0.1445E+00  0.1444E+00
     -6.224  0.8653E-02  0.9316E-03  0.1460E+00  0.1446E+00
     -6.053  0.1374E-01  0.9361E-02  0.1483E+00  0.1461E+00
     -5.883  0.1021E-01  0.1514E-01  0.1500E+00  0.1487E+00
     -5.713  0.1126E-01  0.6962E-02  0.1519E+00  0.1499E+00
     -5.542  0.9677E-02  0.1251E-01  0.1536E+00  0.1520E+00
     -5.372  0.6366E-02  0.9645E-02  0.1547E+00  0.1537E+00
     -5.202  0.2042E-01  0.4200E-02  0.1582E+00  0.1544E+00
     -5.031  0.1564E-01  0.1849E-01  0.1608E+00  0.1576E+00
     -4.861  0.1756E-01  0.1570E-01  0.1638E+00  0.1602E+00
     -4.691  0.1785E-01  0.1187E-01  0.1669E+00  0.1622E+00
     -4.520  0.2594E-01  0.1556E-01  0.1713E+00  0.1649E+00
     -4.350  0.2679E-01  0.1223E-01  0.1758E+00  0.1670E+00
     -4.180  0.4367E-01  0.3105E-01  0.1833E+00  0.1723E+00
     -4.009  0.6094E-01  0.2077E-01  0.1937E+00  0.1758E+00
     -3.839  0.9095E-01  0.2511E-01  0.2091E+00  0.1801E+00
     -3.669  0.1221E+00  0.2205E-01  0.2299E+00  0.1838E+00
     -3.498  0.1221E+00  0.2804E-01  0.2507E+00  0.1886E+00
     -3.328  0.1696E+00  0.4713E-01  0.2796E+00  0.1966E+00
     -3.158  0.1755E+00  0.6008E-01  0.3095E+00  0.2069E+00
     -2.987  0.1345E+00  0.6533E-01  0.3324E+00  0.2180E+00
     -2.817  0.1476E+00  0.7308E-01  0.3576E+00  0.2305E+00
     -2.647  0.2299E+00  0.6633E-01  0.3967E+00  0.2417E+00
     -2.476  0.2608E+00  0.8435E-01  0.4412E+00  0.2561E+00
     -2.306  0.2257E+00  0.9107E-01  0.4796E+00  0.2716E+00
     -2.136  0.2232E+00  0.9955E-01  0.5176E+00  0.2886E+00
     -1.965  0.2294E+00  0.1119E+00  0.5567E+00  0.3076E+00
     -1.795  0.2226E+00  0.1147E+00  0.5946E+00  0.3272E+00
     -1.625  0.2273E+00  0.1279E+00  0.6333E+00  0.3490E+00
     -1.454  0.2134E+00  0.1501E+00  0.6697E+00  0.3745E+00
     -1.284  0.1687E+00  0.1629E+00  0.6984E+00  0.4023E+00
     -1.114  0.1635E+00  0.1612E+00  0.7263E+00  0.4297E+00
     -0.943  0.1774E+00  0.1659E+00  0.7565E+00  0.4580E+00
     -0.773  0.1935E+00  0.1936E+00  0.7894E+00  0.4910E+00
     -0.603  0.2501E+00  0.2090E+00  0.8320E+00  0.5266E+00
     -0.432  0.3027E+00  0.2191E+00  0.8836E+00  0.5639E+00
     -0.262  0.2912E+00  0.2123E+00  0.9332E+00  0.6000E+00
     -0.092  0.2293E+00  0.1853E+00  0.9723E+00  0.6316E+00
      0.079  0.1798E+00  0.1415E+00  0.1003E+01  0.6557E+00
      0.249  0.1594E+00  0.1065E+00  0.1030E+01  0.6738E+00
      0.419  0.1533E+00  0.8417E-01  0.1056E+01  0.6882E+00
      0.590  0.1436E+00  0.9026E-01  0.1081E+01  0.7036E+00
      0.760  0.1145E+00  0.1092E+00  0.1100E+01  0.7222E+00
      0.930  0.9352E-01  0.1281E+00  0.1116E+01  0.7440E+00
      1.101  0.1093E+00  0.1587E+00  0.1135E+01  0.7710E+00
      1.271  0.1205E+00  0.1799E+00  0.1155E+01  0.8017E+00
      1.441  0.1244E+00  0.2027E+00  0.1176E+01  0.8362E+00
      1.612  0.1198E+00  0.2285E+00  0.1197E+01  0.8751E+00
      1.782  0.5951E-01  0.2336E+00  0.1207E+01  0.9149E+00
      1.952 -0.8020E-03  0.2495E+00  0.1207E+01  0.9574E+00
      2.123 -0.6494E-03  0.2862E+00  0.1207E+01  0.1006E+01
      2.293 -0.4869E-05  0.3062E+00  0.1207E+01  0.1058E+01
      2.463 -0.2497E-08  0.3225E+00  0.1207E+01  0.1113E+01
      2.633 -0.9624E-13  0.2447E+00  0.1207E+01  0.1155E+01
      2.804  0.0000E+00  0.1609E+00  0.1207E+01  0.1182E+01
      2.974  0.0000E+00  0.1133E+00  0.1207E+01  0.1202E+01
      3.144  0.0000E+00  0.3221E-01  0.1207E+01  0.1207E+01
      3.315  0.0000E+00 -0.2414E-02  0.1207E+01  0.1207E+01
      3.485  0.0000E+00 -0.2308E-03  0.1207E+01  0.1207E+01
      3.655  0.0000E+00 -0.9553E-06  0.1207E+01  0.1207E+01
      3.826  0.0000E+00 -0.2840E-09  0.1207E+01  0.1207E+01
      3.996  0.0000E+00 -0.6350E-14  0.1207E+01  0.1207E+01
      4.166  0.0000E+00  0.0000E+00  0.1207E+01  0.1207E+01
      4.337  0.0000E+00  0.0000E+00  0.1207E+01  0.1207E+01
      4.507  0.0000E+00  0.0000E+00  0.1207E+01  0.1207E+01
      4.677  0.0000E+00  0.0000E+00  0.1207E+01  0.1207E+01
      4.848  0.0000E+00  0.0000E+00  0.1207E+01  0.1207E+01
      5.018  0.0000E+00  0.0000E+00  0.1207E+01  0.1207E+01
      5.188  0.0000E+00  0.0000E+00  0.1207E+01  0.1207E+01
      5.359  0.0000E+00  0.0000E+00  0.1207E+01  0.1207E+01
