   62   62  300    2
  0.2759182E+02  0.8532700E-09  0.8497000E-09  0.2359500E-08  0.5000000E-15
  1.000000000000000E-004
  CAR 
 ni3al                                   
    552     10    362
 
  0.0000000E+00  0.0000000E+00  0.0000000E+00  0.6250000E-01
      1        -43.014127      -43.416823   1.000000   1.000000
      2        -42.943721      -43.389890   1.000000   1.000000
      3        -42.935095      -43.361989   1.000000   1.000000
      4        -42.926280      -43.339844   1.000000   1.000000
      5        -42.923324      -43.334679   1.000000   1.000000
      6        -42.914545      -43.317673   1.000000   1.000000
      7        -42.907025      -43.298562   1.000000   1.000000
      8        -42.879452      -43.298145   1.000000   1.000000
      9        -42.879345      -43.295910   1.000000   1.000000
     10        -42.865045      -43.290167   1.000000   1.000000
     11        -42.849934      -43.288377   1.000000   1.000000
     12        -42.842622      -43.272142   1.000000   1.000000
     13        -42.839061      -43.270373   1.000000   1.000000
     14        -42.830837      -43.269044   1.000000   1.000000
     15        -42.830822      -43.264229   1.000000   1.000000
     16        -42.287718      -43.241505   1.000000   1.000000
     17        -42.225752      -43.240373   1.000000   1.000000
     18        -42.202294      -43.201344   1.000000   1.000000
     19        -42.191086      -42.891037   1.000000   1.000000
     20        -42.174679      -42.824836   1.000000   1.000000
     21        -42.154964      -42.822091   1.000000   1.000000
     22        -41.969932      -42.780626   1.000000   1.000000
     23        -41.961774      -42.761409   1.000000   1.000000
     24        -41.942662      -42.735535   1.000000   1.000000
     25        -41.934755      -42.727474   1.000000   1.000000
     26        -41.928343      -42.467819   1.000000   1.000000
     27        -41.925683      -42.355448   1.000000   1.000000
     28        -41.922241      -40.589055   1.000000   1.000000
     29        -41.915693      -40.580336   1.000000   1.000000
     30        -41.909538      -40.265099   1.000000   1.000000
     31        -41.908050      -40.234754   1.000000   1.000000
     32        -41.906063      -40.160335   1.000000   1.000000
     33        -41.902236      -40.135681   1.000000   1.000000
     34        -41.884993      -40.061645   1.000000   1.000000
     35        -41.874332      -40.060848   1.000000   1.000000
     36        -41.864185      -39.936386   1.000000   1.000000
     37        -41.710502      -39.934034   1.000000   1.000000
     38        -41.672185      -39.911619   1.000000   1.000000
     39        -41.621270      -39.873820   1.000000   1.000000
     40        -40.295277      -39.851289   1.000000   1.000000
     41        -40.278720      -39.757351   1.000000   1.000000
     42        -40.142816      -39.712939   1.000000   1.000000
     43         -7.364117       -7.258311   1.000000   1.000000
     44         -6.370713       -6.192719   1.000000   1.000000
     45         -5.398167       -5.209226   1.000000   1.000000
     46         -5.358186       -5.184705   1.000000   1.000000
     47         -5.336462       -5.173435   1.000000   1.000000
     48         -5.305987       -5.152954   1.000000   1.000000
     49         -5.069086       -4.753540   1.000000   1.000000
     50         -4.753270       -4.438545   1.000000   1.000000
     51         -4.714601       -4.393689   1.000000   1.000000
     52         -4.682557       -4.338459   1.000000   1.000000
     53         -4.660099       -4.291042   1.000000   1.000000
     54         -4.254167       -3.810249   1.000000   1.000000
     55         -4.239128       -3.802963   1.000000   1.000000
     56         -4.223361       -3.759626   1.000000   1.000000
     57         -4.208174       -3.707363   1.000000   1.000000
     58         -4.172156       -3.637021   1.000000   1.000000
     59         -4.165330       -3.566274   1.000000   1.000000
     60         -4.151675       -3.495323   1.000000   1.000000
     61         -4.096982       -3.454792   1.000000   1.000000
     62         -3.989090       -3.346098   1.000000   1.000000
     63         -3.964656       -3.027387   1.000000   1.000000
     64         -3.859369       -2.980682   1.000000   1.000000
     65         -3.772180       -2.956300   1.000000   1.000000
     66         -3.736281       -2.922787   1.000000   1.000000
     67         -3.724177       -2.898191   1.000000   1.000000
     68         -3.686838       -2.852563   1.000000   1.000000
     69         -3.612052       -2.798128   1.000000   1.000000
     70         -3.571058       -2.775127   1.000000   1.000000
     71         -3.551324       -2.758227   1.000000   1.000000
     72         -3.534939       -2.667114   1.000000   1.000000
     73         -3.517139       -2.519235   1.000000   1.000000
     74         -3.499702       -2.506253   1.000000   1.000000
     75         -3.494973       -2.485960   1.000000   1.000000
     76         -3.457595       -2.455257   1.000000   1.000000
     77         -3.432704       -2.426705   1.000000   1.000000
     78         -3.422736       -2.396195   1.000000   1.000000
     79         -3.412709       -2.377077   1.000000   1.000000
     80         -3.405928       -2.332927   1.000000   1.000000
     81         -3.389484       -2.283070   1.000000   1.000000
     82         -3.375219       -2.238499   1.000000   1.000000
     83         -3.361236       -2.218980   1.000000   1.000000
     84         -3.343559       -2.213909   1.000000   1.000000
     85         -3.333152       -2.176741   1.000000   1.000000
     86         -3.307971       -2.155616   1.000000   1.000000
     87         -3.273049       -2.131891   1.000000   1.000000
     88         -3.261321       -2.100686   1.000000   1.000000
     89         -3.222748       -2.072587   1.000000   1.000000
     90         -3.120964       -2.031496   1.000000   1.000000
     91         -3.100657       -1.982103   1.000000   1.000000
     92         -3.092783       -1.936969   1.000000   1.000000
     93         -3.074020       -1.905137   1.000000   1.000000
     94         -3.063453       -1.893096   1.000000   1.000000
     95         -3.046987       -1.871043   1.000000   1.000000
     96         -3.029708       -1.842390   1.000000   1.000000
     97         -3.020091       -1.811654   1.000000   1.000000
     98         -3.003991       -1.790099   1.000000   1.000000
     99         -2.986105       -1.751295   1.000000   1.000000
    100         -2.966564       -1.743338   1.000000   1.000000
    101         -2.962888       -1.678785   1.000000   1.000000
    102         -2.928823       -1.674677   1.000000   1.000000
    103         -2.898597       -1.653608   1.000000   1.000000
    104         -2.845637       -1.633630   1.000000   1.000000
    105         -2.794337       -1.615963   1.000000   1.000000
    106         -2.790152       -1.578703   1.000000   1.000000
    107         -2.769123       -1.557412   1.000000   1.000000
    108         -2.743552       -1.540709   1.000000   1.000000
    109         -2.709891       -1.528455   1.000000   1.000000
    110         -2.702817       -1.503391   1.000000   1.000000
    111         -2.679225       -1.467561   1.000000   1.000000
    112         -2.672060       -1.452572   1.000000   1.000000
    113         -2.665452       -1.445817   1.000000   1.000000
    114         -2.648311       -1.406320   1.000000   1.000000
    115         -2.628480       -1.391575   1.000000   1.000000
    116         -2.625911       -1.382844   1.000000   1.000000
    117         -2.619754       -1.360229   1.000000   1.000000
    118         -2.602596       -1.344434   1.000000   1.000000
    119         -2.595771       -1.295439   1.000000   1.000000
    120         -2.588334       -1.262603   1.000000   1.000000
    121         -2.585236       -1.254333   1.000000   1.000000
    122         -2.566551       -1.251093   1.000000   1.000000
    123         -2.566115       -1.236424   1.000000   1.000000
    124         -2.554796       -1.230044   1.000000   1.000000
    125         -2.542029       -1.207570   1.000000   1.000000
    126         -2.523144       -1.170847   1.000000   1.000000
    127         -2.512830       -1.164292   1.000000   1.000000
    128         -2.500911       -1.153488   1.000000   1.000000
    129         -2.491214       -1.134944   1.000000   1.000000
    130         -2.479088       -1.113252   1.000000   1.000000
    131         -2.464172       -1.094106   1.000000   1.000000
    132         -2.456440       -1.070058   1.000000   1.000000
    133         -2.445562       -1.056667   1.000000   1.000000
    134         -2.432347       -1.038023   1.000000   1.000000
    135         -2.418780       -1.028093   1.000000   1.000000
    136         -2.412037       -1.014625   1.000000   1.000000
    137         -2.406396       -1.005088   1.000000   1.000000
    138         -2.392832       -0.989454   1.000000   1.000000
    139         -2.385494       -0.962976   1.000000   1.000000
    140         -2.372417       -0.952853   1.000000   1.000000
    141         -2.361227       -0.933568   1.000000   1.000000
    142         -2.355563       -0.912707   1.000000   1.000000
    143         -2.328632       -0.893211   1.000000   1.000000
    144         -2.310515       -0.877178   1.000000   1.000000
    145         -2.302412       -0.866258   1.000000   1.000000
    146         -2.292476       -0.848892   1.000000   1.000000
    147         -2.288108       -0.841944   1.000000   1.000000
    148         -2.271107       -0.825944   1.000000   1.000000
    149         -2.253319       -0.808586   1.000000   1.000000
    150         -2.224575       -0.788839   1.000000   1.000000
    151         -2.223180       -0.775689   1.000000   1.000000
    152         -2.209093       -0.757211   1.000000   1.000000
    153         -2.193251       -0.726246   1.000000   1.000000
    154         -2.192297       -0.713185   1.000000   1.000000
    155         -2.168266       -0.687777   1.000000   1.000000
    156         -2.157242       -0.657034   1.000000   1.000000
    157         -2.136637       -0.650040   1.000000   1.000000
    158         -2.121363       -0.642702   1.000000   1.000000
    159         -2.110565       -0.617225   1.000000   1.000000
    160         -2.099880       -0.597918   1.000000   1.000000
    161         -2.086836       -0.583173   1.000000   1.000000
    162         -2.074695       -0.577919   1.000000   1.000000
    163         -2.051252       -0.560992   1.000000   1.000000
    164         -2.044870       -0.548017   1.000000   1.000000
    165         -2.028169       -0.508509   1.000000   1.000000
    166         -2.004212       -0.505145   1.000000   1.000000
    167         -1.990587       -0.476367   1.000000   1.000000
    168         -1.980770       -0.458160   1.000000   1.000000
    169         -1.974565       -0.430653   1.000000   1.000000
    170         -1.962036       -0.417158   1.000000   1.000000
    171         -1.950514       -0.403382   1.000000   1.000000
    172         -1.942861       -0.394687   1.000000   1.000000
    173         -1.911555       -0.378676   1.000000   1.000000
    174         -1.890499       -0.375886   1.000000   1.000000
    175         -1.879249       -0.339037   1.000000   1.000000
    176         -1.870362       -0.322137   1.000000   1.000000
    177         -1.861096       -0.318197   1.000000   1.000000
    178         -1.832320       -0.290929   1.000000   1.000000
    179         -1.821002       -0.281634   1.000000   1.000000
    180         -1.807073       -0.259878   1.000000   1.000000
    181         -1.792532       -0.252736   1.000000   1.000000
    182         -1.762729       -0.234483   1.000000   1.000000
    183         -1.753564       -0.197912   1.000000   1.000000
    184         -1.741030       -0.178823   1.000000   1.000000
    185         -1.713812       -0.150950   1.000000   1.000000
    186         -1.699496       -0.125103   1.000000   1.000000
    187         -1.686803       -0.104674   1.000000   1.000000
    188         -1.654855       -0.091347   1.000000   1.000000
    189         -1.652613       -0.068577   1.000000   1.000000
    190         -1.646908       -0.012535   1.000000   1.000000
    191         -1.611057        0.029814   1.000000   1.000000
    192         -1.576690        0.039809   1.000000   1.000000
    193         -1.567076        0.064030   1.000000   1.000000
    194         -1.552135        0.087653   1.000000   1.000000
    195         -1.527623        0.127731   1.000000   1.000000
    196         -1.522293        0.150374   1.000000   1.000000
    197         -1.491687        0.160278   1.000000   1.000000
    198         -1.482059        0.182771   1.000000   1.000000
    199         -1.469604        0.209167   1.000000   1.000000
    200         -1.456761        0.230865   1.000000   1.000000
    201         -1.436473        0.241966   1.000000   1.000000
    202         -1.413634        0.271796   1.000000   1.000001
    203         -1.404148        0.290018   1.000000   1.000001
    204         -1.371848        0.329202   1.000000   1.000007
    205         -1.356972        0.357410   1.000000   1.000024
    206         -1.347627        0.403924   1.000000   1.000141
    207         -1.320638        0.430463   1.000000   1.000355
    208         -1.294344        0.443170   1.000000   1.000540
    209         -1.277582        0.467485   1.000000   1.001149
    210         -1.255427        0.488319   1.000000   1.002091
    211         -1.246026        0.511505   1.000000   1.003854
    212         -1.227274        0.528337   1.000000   1.005790
    213         -1.214187        0.560051   1.000000   1.011398
    214         -1.196566        0.577942   1.000000   1.015799
    215         -1.185052        0.583754   1.000000   1.017404
    216         -1.157988        0.629592   1.000000   1.030979
    217         -1.140472        0.647157   1.000000   1.034593
    218         -1.130061        0.657932   1.000000   1.035450
    219         -1.107337        0.732616   1.000000   0.971241
    220         -1.090009        0.763356   1.000000   0.885735
    221         -1.073657        0.787912   1.000000   0.787625
    222         -1.054796        0.815522   1.000000   0.650805
    223         -1.047961        0.870788   1.000000   0.344797
    224         -1.025484        0.923544   1.000000   0.109403
    225         -1.021821        0.946437   1.000000   0.043203
    226         -0.982721        0.997301   1.000000  -0.028000
    227         -0.977865        1.021792   1.000000  -0.035303
    228         -0.949285        1.044964   1.000000  -0.033485
    229         -0.928154        1.059094   1.000000  -0.030127
    230         -0.915929        1.070735   1.000000  -0.026754
    231         -0.901973        1.075612   1.000000  -0.025265
    232         -0.882538        1.093729   1.000000  -0.019728
    233         -0.857188        1.109149   1.000000  -0.015369
    234         -0.844645        1.132338   1.000000  -0.009938
    235         -0.831619        1.134497   1.000000  -0.009510
    236         -0.810176        1.145397   1.000000  -0.007547
    237         -0.800462        1.155124   1.000000  -0.006068
    238         -0.783172        1.161831   1.000000  -0.005187
    239         -0.778418        1.178015   1.000000  -0.003480
    240         -0.762137        1.208102   1.000000  -0.001536
    241         -0.750233        1.215925   1.000000  -0.001222
    242         -0.731514        1.234609   1.000000  -0.000691
    243         -0.715644        1.249286   1.000000  -0.000430
    244         -0.695809        1.262617   1.000000  -0.000275
    245         -0.676576        1.280341   1.000000  -0.000147
    246         -0.666097        1.296773   1.000000  -0.000080
    247         -0.647790        1.313653   1.000000  -0.000042
    248         -0.628609        1.320233   1.000000  -0.000032
    249         -0.617521        1.362146   1.000000  -0.000006
    250         -0.606364        1.374121   1.000000  -0.000003
    251         -0.601006        1.384561   1.000000  -0.000002
    252         -0.595430        1.395478   1.000000  -0.000001
    253         -0.587511        1.409656   1.000000  -0.000001
    254         -0.576942        1.429066   1.000000  -0.000000
    255         -0.563584        1.450369   1.000000  -0.000000
    256         -0.553148        1.471821   1.000000  -0.000000
    257         -0.545781        1.481092   1.000000  -0.000000
    258         -0.529667        1.502266   1.000000  -0.000000
    259         -0.524602        1.509286   1.000000  -0.000000
    260         -0.520193        1.527021   1.000000  -0.000000
    261         -0.498333        1.529950   1.000000  -0.000000
    262         -0.493974        1.556116   1.000000  -0.000000
    263         -0.477617        1.565986   1.000000  -0.000000
    264         -0.464225        1.587911   1.000000  -0.000000
    265         -0.462768        1.607673   1.000000  -0.000000
    266         -0.454525        1.608819   1.000000  -0.000000
    267         -0.445688        1.636466   1.000000  -0.000000
    268         -0.438912        1.657559   1.000000  -0.000000
    269         -0.418615        1.661982   1.000000  -0.000000
    270         -0.411967        1.681396   1.000000  -0.000000
    271         -0.405718        1.689844   1.000000  -0.000000
    272         -0.397182        1.712788   1.000000  -0.000000
    273         -0.391823        1.737627   1.000000  -0.000000
    274         -0.376645        1.753011   1.000000  -0.000000
    275         -0.370950        1.764514   1.000000  -0.000000
    276         -0.362722        1.776437   1.000000  -0.000000
    277         -0.353843        1.800218   1.000000  -0.000000
    278         -0.335107        1.816589   1.000000  -0.000000
    279         -0.322860        1.827780   1.000000  -0.000000
    280         -0.307917        1.842013   1.000000  -0.000000
    281         -0.293357        1.843289   1.000000  -0.000000
    282         -0.287347        1.861689   1.000000  -0.000000
    283         -0.272890        1.883630   1.000000  -0.000000
    284         -0.255276        1.903907   1.000000  -0.000000
    285         -0.251830        1.907922   1.000000  -0.000000
    286         -0.230536        1.927684   1.000000  -0.000000
    287         -0.224061        1.933329   1.000000  -0.000000
    288         -0.215154        1.955460   1.000000  -0.000000
    289         -0.190184        1.967080   1.000000  -0.000000
    290         -0.177295        1.972499   1.000000  -0.000000
    291         -0.168841        1.982276   1.000000  -0.000000
    292         -0.149416        1.991275   1.000000  -0.000000
    293         -0.140070        2.017275   1.000000  -0.000000
    294         -0.105363        2.028806   1.000000  -0.000000
    295         -0.101112        2.034007   1.000000  -0.000000
    296         -0.054094        2.049539   1.000000  -0.000000
    297         -0.029435        2.059220   1.000000  -0.000000
    298         -0.010419        2.073356   1.000000  -0.000000
    299          0.010732        2.081915   1.000000  -0.000000
    300          0.028352        2.092345   1.000000  -0.000000
    301          0.044904        2.114712   1.000000  -0.000000
    302          0.050600        2.125550   1.000000  -0.000000
    303          0.072503        2.131637   1.000000  -0.000000
    304          0.099775        2.138954   1.000000  -0.000000
    305          0.115284        2.147822   1.000000  -0.000000
    306          0.130636        2.154550   1.000000  -0.000000
    307          0.157881        2.172035   1.000000  -0.000000
    308          0.179068        2.177144   1.000000  -0.000000
    309          0.187226        2.184748   1.000000  -0.000000
    310          0.221776        2.195095   1.000000  -0.000000
    311          0.232626        2.208314   1.000000  -0.000000
    312          0.239762        2.214399   1.000000  -0.000000
    313          0.283666        2.219866   1.000001  -0.000000
    314          0.304669        2.234602   1.000002  -0.000000
    315          0.334647        2.236581   1.000009  -0.000000
    316          0.373325        2.259119   1.000044  -0.000000
    317          0.379901        2.264703   1.000057  -0.000000
    318          0.414770        2.267915   1.000207  -0.000000
    319          0.431800        2.281689   1.000372  -0.000000
    320          0.447809        2.288766   1.000627  -0.000000
    321          0.472039        2.302324   1.001315  -0.000000
    322          0.493716        2.314196   1.002423  -0.000000
    323          0.536925        2.322177   1.007039  -0.000000
    324          0.544522        2.329601   1.008305  -0.000000
    325          0.556640        2.331182   1.010660  -0.000000
    326          0.578333        2.356961   1.015904  -0.000000
    327          0.582405        2.368662   1.017025  -0.000000
    328          0.600423        2.393008   1.022352  -0.000000
    329          0.623928        2.408266   1.029445  -0.000000
    330          0.647768        2.419926   1.034675  -0.000000
    331          0.694818        2.423976   1.023631  -0.000000
    332          0.706667        2.432572   1.012620  -0.000000
    333          0.769852        2.436767   0.862275  -0.000000
    334          0.834225        2.462784   0.547972  -0.000000
    335          0.862205        2.474542   0.391216  -0.000000
    336          0.895482        2.479250   0.221862  -0.000000
    337          0.949943        2.492346   0.035110  -0.000000
    338          0.999455        2.503179  -0.029169  -0.000000
    339          1.027587        2.520268  -0.035449  -0.000000
    340          1.047970        2.530181  -0.032870  -0.000000
    341          1.073706        2.540742  -0.025850  -0.000000
    342          1.102615        2.549612  -0.017155  -0.000000
    343          1.144339        2.566823  -0.007723  -0.000000
    344          1.155373        2.587699  -0.006033  -0.000000
    345          1.222559        2.608029  -0.001002  -0.000000
    346          1.232466        2.635026  -0.000739  -0.000000
    347          1.278179        2.662018  -0.000159  -0.000000
    348          1.317513        2.673996  -0.000036  -0.000000
    349          1.326876        2.688091  -0.000025  -0.000000
    350          1.338294        2.724874  -0.000015  -0.000000
    351          1.379857        2.748899  -0.000003  -0.000000
    352          1.391771        2.790393  -0.000001  -0.000000
    353          1.413504        2.807634  -0.000001  -0.000000
    354          1.414908        2.814613  -0.000000  -0.000000
    355          1.456821        2.854524  -0.000000  -0.000000
    356          1.494434        2.886920  -0.000000  -0.000000
    357          1.511822        2.909960  -0.000000  -0.000000
    358          1.548907        2.921864  -0.000000  -0.000000
    359          1.585385        2.926689  -0.000000  -0.000000
    360          1.616750        2.970945  -0.000000  -0.000000
    361          1.640088        2.992736  -0.000000  -0.000000
    362          1.678862        2.995103  -0.000000  -0.000000
 
  0.2500000E+00  0.6721729E-20  0.0000000E+00  0.1250000E+00
      1        -43.014129      -43.416827   1.000000   1.000000
      2        -42.943715      -43.389889   1.000000   1.000000
      3        -42.935099      -43.361994   1.000000   1.000000
      4        -42.926284      -43.339847   1.000000   1.000000
      5        -42.923326      -43.334686   1.000000   1.000000
      6        -42.914549      -43.317672   1.000000   1.000000
      7        -42.907020      -43.298563   1.000000   1.000000
      8        -42.879453      -43.298142   1.000000   1.000000
      9        -42.879353      -43.295900   1.000000   1.000000
     10        -42.865052      -43.290172   1.000000   1.000000
     11        -42.849933      -43.288388   1.000000   1.000000
     12        -42.842648      -43.272067   1.000000   1.000000
     13        -42.839072      -43.270462   1.000000   1.000000
     14        -42.830837      -43.269042   1.000000   1.000000
     15        -42.830828      -43.264233   1.000000   1.000000
     16        -42.287723      -43.241504   1.000000   1.000000
     17        -42.225766      -43.240373   1.000000   1.000000
     18        -42.202298      -43.201377   1.000000   1.000000
     19        -42.191070      -42.891045   1.000000   1.000000
     20        -42.174683      -42.824855   1.000000   1.000000
     21        -42.154966      -42.822106   1.000000   1.000000
     22        -41.969916      -42.780608   1.000000   1.000000
     23        -41.961772      -42.761425   1.000000   1.000000
     24        -41.942668      -42.735534   1.000000   1.000000
     25        -41.934761      -42.727464   1.000000   1.000000
     26        -41.928350      -42.467827   1.000000   1.000000
     27        -41.925693      -42.355453   1.000000   1.000000
     28        -41.922227      -40.589053   1.000000   1.000000
     29        -41.915710      -40.580338   1.000000   1.000000
     30        -41.909552      -40.265105   1.000000   1.000000
     31        -41.908053      -40.234756   1.000000   1.000000
     32        -41.906061      -40.160352   1.000000   1.000000
     33        -41.902242      -40.135686   1.000000   1.000000
     34        -41.885004      -40.061641   1.000000   1.000000
     35        -41.874349      -40.060847   1.000000   1.000000
     36        -41.864197      -39.936393   1.000000   1.000000
     37        -41.710506      -39.934045   1.000000   1.000000
     38        -41.672184      -39.911618   1.000000   1.000000
     39        -41.621279      -39.873826   1.000000   1.000000
     40        -40.295286      -39.851300   1.000000   1.000000
     41        -40.278723      -39.757356   1.000000   1.000000
     42        -40.142822      -39.712946   1.000000   1.000000
     43         -7.223525       -7.116603   1.000000   1.000000
     44         -6.254663       -6.075762   1.000000   1.000000
     45         -6.151147       -6.023595   1.000000   1.000000
     46         -5.338827       -5.110002   1.000000   1.000000
     47         -5.252925       -5.065142   1.000000   1.000000
     48         -5.188701       -5.023107   1.000000   1.000000
     49         -4.964490       -4.655595   1.000000   1.000000
     50         -4.638177       -4.301567   1.000000   1.000000
     51         -4.605275       -4.284002   1.000000   1.000000
     52         -4.569261       -4.253046   1.000000   1.000000
     53         -4.508297       -4.239064   1.000000   1.000000
     54         -4.477769       -4.181795   1.000000   1.000000
     55         -4.352301       -3.912951   1.000000   1.000000
     56         -4.239681       -3.692019   1.000000   1.000000
     57         -4.141076       -3.503106   1.000000   1.000000
     58         -4.077466       -3.448148   1.000000   1.000000
     59         -4.066977       -3.410444   1.000000   1.000000
     60         -3.992032       -3.397103   1.000000   1.000000
     61         -3.958194       -3.360483   1.000000   1.000000
     62         -3.929580       -3.322773   1.000000   1.000000
     63         -3.903644       -3.284752   1.000000   1.000000
     64         -3.866153       -3.193920   1.000000   1.000000
     65         -3.835839       -2.988273   1.000000   1.000000
     66         -3.764636       -2.936718   1.000000   1.000000
     67         -3.741342       -2.916001   1.000000   1.000000
     68         -3.675321       -2.871665   1.000000   1.000000
     69         -3.659215       -2.758340   1.000000   1.000000
     70         -3.641512       -2.724267   1.000000   1.000000
     71         -3.634046       -2.701451   1.000000   1.000000
     72         -3.600350       -2.675886   1.000000   1.000000
     73         -3.590575       -2.637982   1.000000   1.000000
     74         -3.569782       -2.571175   1.000000   1.000000
     75         -3.538975       -2.563250   1.000000   1.000000
     76         -3.492568       -2.513263   1.000000   1.000000
     77         -3.443650       -2.428847   1.000000   1.000000
     78         -3.416210       -2.420984   1.000000   1.000000
     79         -3.380078       -2.401287   1.000000   1.000000
     80         -3.368675       -2.319593   1.000000   1.000000
     81         -3.359480       -2.299111   1.000000   1.000000
     82         -3.336715       -2.240541   1.000000   1.000000
     83         -3.317103       -2.225176   1.000000   1.000000
     84         -3.314634       -2.164043   1.000000   1.000000
     85         -3.304096       -2.138522   1.000000   1.000000
     86         -3.289218       -2.133429   1.000000   1.000000
     87         -3.273698       -2.100667   1.000000   1.000000
     88         -3.258354       -2.088478   1.000000   1.000000
     89         -3.228994       -2.054190   1.000000   1.000000
     90         -3.224175       -2.031393   1.000000   1.000000
     91         -3.189626       -2.007227   1.000000   1.000000
     92         -3.163706       -1.981699   1.000000   1.000000
     93         -3.134527       -1.960099   1.000000   1.000000
     94         -3.123033       -1.947433   1.000000   1.000000
     95         -3.096572       -1.922981   1.000000   1.000000
     96         -3.076904       -1.885694   1.000000   1.000000
     97         -3.051064       -1.840688   1.000000   1.000000
     98         -3.026724       -1.814742   1.000000   1.000000
     99         -3.002557       -1.771247   1.000000   1.000000
    100         -2.970110       -1.755016   1.000000   1.000000
    101         -2.949276       -1.717635   1.000000   1.000000