srun: ROUTE: split_hostlist: hl=e10r4n17 tree_width 0
 running on    4 total cores
 distrk:  each k-point on    1 cores,    4 groups
 distr:  one band on    1 cores,    1 groups
 HIP runtime initialized ...    4 DCUs will be used
 Created    4 streams on each DCU
 vasp.6.3.2 27Jun22 (build Mar 15 2023 15:45:48) complex                        
  
 POSCAR found type information on POSCAR FeCr
 POSCAR found :  2 types and      62 ions
 Reading from existing POTCAR
 -----------------------------------------------------------------------------
|                                                                             |
|           W    W    AA    RRRRR   N    N  II  N    N   GGGG   !!!           |
|           W    W   A  A   R    R  NN   N  II  NN   N  G    G  !!!           |
|           W    W  A    A  R    R  N N  N  II  N N  N  G       !!!           |
|           W WW W  AAAAAA  RRRRR   N  N N  II  N  N N  G  GGG   !            |
|           WW  WW  A    A  R   R   N   NN  II  N   NN  G    G                |
|           W    W  A    A  R    R  N    N  II  N    N   GGGG   !!!           |
|                                                                             |
|     You use a magnetic or noncollinear calculation, but did not specify     |
|     the initial magnetic moment with the MAGMOM tag. Note that a            |
|     default of 1 will be used for all atoms. This ferromagnetic setup       |
|     may break the symmetry of the crystal, in particular it may rule        |
|     out finding an antiferromagnetic solution. Thence, we recommend         |
|     setting the initial magnetic moment manually or verifying carefully     |
|     that this magnetic setup is desired.                                    |
|                                                                             |
 -----------------------------------------------------------------------------

 scaLAPACK will be used selectively (only on CPU)
 Reading from existing POTCAR
 LDA part: xc-table for Pade appr. of Perdew
 POSCAR found type information on POSCAR FeCr
 POSCAR found :  2 types and      62 ions
 Optimize memory usage for KPAR
 POSCAR, INCAR and KPOINTS ok, starting setup
 FFT: planning ... GRIDC
 FFT: planning ... GRID_SOFT
 FFT: planning ... GRID
 WAVECAR not read
 entering main loop
       N       E                     dE             d eps       ncg     rms          rms(c)
DAV:   1     0.535592766702E+04    0.53559E+04   -0.23633E+05 15360   0.143E+03
DAV:   2    -0.970548319517E+02   -0.54530E+04   -0.52613E+04 14480   0.420E+02
DAV:   3    -0.519814056392E+03   -0.42276E+03   -0.37522E+03 14908   0.158E+02
DAV:   4    -0.576717208792E+03   -0.56903E+02   -0.53265E+02 25728   0.440E+01
DAV:   5    -0.579898920411E+03   -0.31817E+01   -0.30063E+01 23712   0.988E+00    0.940E+01
DAV:   6    -0.120242527960E+04   -0.62253E+03   -0.25269E+03 26960   0.234E+02    0.313E+02
DAV:   7    -0.650731185673E+03    0.55169E+03   -0.14564E+03 23296   0.115E+02    0.166E+02
DAV:   8    -0.671690676621E+03   -0.20959E+02   -0.14174E+03 26712   0.150E+02    0.190E+02
DAV:   9    -0.650851669684E+03    0.20839E+02   -0.94283E+02 25260   0.122E+02    0.174E+02
DAV:  10    -0.521821567013E+03    0.12903E+03   -0.53699E+02 24868   0.780E+01    0.950E+01
DAV:  11    -0.554376159429E+03   -0.32555E+02   -0.35699E+02 25208   0.880E+01    0.116E+02
DAV:  12    -0.494305503458E+03    0.60071E+02   -0.15908E+02 26040   0.557E+01    0.628E+01
DAV:  13    -0.497659191893E+03   -0.33537E+01   -0.94322E+01 26512   0.491E+01    0.632E+01
DAV:  14    -0.489323366797E+03    0.83358E+01   -0.41015E+01 26000   0.341E+01    0.463E+01
DAV:  15    -0.488669175672E+03    0.65419E+00   -0.15652E+01 25328   0.187E+01    0.431E+01
DAV:  16    -0.487439176137E+03    0.12300E+01   -0.80752E+00 25136   0.133E+01    0.361E+01
DAV:  17    -0.487219078062E+03    0.22010E+00   -0.32610E+00 24912   0.875E+00    0.334E+01
DAV:  18    -0.487334823975E+03   -0.11575E+00   -0.38980E-01 20192   0.213E+00    0.331E+01
DAV:  19    -0.487333992049E+03    0.83193E-03   -0.40480E-02 23200   0.497E-01    0.332E+01
DAV:  20    -0.487701054132E+03   -0.36706E+00   -0.11359E+00 26528   0.335E+00    0.335E+01
DAV:  21    -0.487936520320E+03   -0.23547E+00   -0.19804E+00 26216   0.665E+00    0.338E+01
DAV:  22    -0.487873711255E+03    0.62809E-01   -0.13603E+00 26408   0.553E+00    0.332E+01
DAV:  23    -0.487954092832E+03   -0.80382E-01   -0.26438E+00 26056   0.792E+00    0.346E+01
DAV:  24    -0.488000103409E+03   -0.46011E-01   -0.32613E+00 26384   0.904E+00    0.337E+01
DAV:  25    -0.488204524207E+03   -0.20442E+00   -0.23806E+00 25840   0.722E+00    0.342E+01
DAV:  26    -0.487799504537E+03    0.40502E+00   -0.15191E+00 25104   0.585E+00    0.330E+01
DAV:  27    -0.487634150102E+03    0.16535E+00   -0.47440E-01 24288   0.346E+00    0.327E+01
DAV:  28    -0.487822603737E+03   -0.18845E+00   -0.19268E-01 24984   0.171E+00    0.333E+01
DAV:  29    -0.487798902027E+03    0.23702E-01   -0.33661E-01 26512   0.290E+00    0.331E+01
DAV:  30    -0.488194764817E+03   -0.39586E+00   -0.98529E-01 26528   0.475E+00    0.349E+01
DAV:  31    -0.488342464655E+03   -0.14770E+00   -0.17348E+00 25808   0.637E+00    0.363E+01
DAV:  32    -0.488189781565E+03    0.15268E+00   -0.53509E-01 25128   0.352E+00    0.359E+01
DAV:  33    -0.488189269692E+03    0.51187E-03   -0.93130E-02 21840   0.122E+00    0.360E+01
DAV:  34    -0.488250396069E+03   -0.61126E-01   -0.14319E-01 25408   0.181E+00    0.366E+01
DAV:  35    -0.488218504418E+03    0.31892E-01   -0.76477E-02 25832   0.139E+00    0.365E+01
DAV:  36    -0.488024736112E+03    0.19377E+00   -0.24249E-01 25192   0.228E+00    0.359E+01
DAV:  37    -0.488036931675E+03   -0.12196E-01   -0.27380E-02 18504   0.452E-01    0.359E+01
DAV:  38    -0.487991122370E+03    0.45809E-01   -0.25192E-01 26128   0.204E+00    0.358E+01
DAV:  39    -0.487856695835E+03    0.13443E+00   -0.17416E-01 25032   0.207E+00    0.351E+01
DAV:  40    -0.487888035692E+03   -0.31340E-01   -0.33794E-02 24416   0.773E-01    0.353E+01
DAV:  41    -0.487876410923E+03    0.11625E-01   -0.13808E-01 25560   0.173E+00    0.356E+01
DAV:  42    -0.487846429886E+03    0.29981E-01   -0.35579E-02 24536   0.884E-01    0.355E+01
DAV:  43    -0.487779955609E+03    0.66474E-01   -0.88663E-02 24496   0.139E+00    0.356E+01
DAV:  44    -0.487649131077E+03    0.13082E+00   -0.16741E-01 24984   0.205E+00    0.355E+01
DAV:  45    -0.487551455148E+03    0.97676E-01   -0.23459E-01 25976   0.243E+00    0.350E+01
DAV:  46    -0.487476247002E+03    0.75208E-01   -0.32881E-01 26320   0.246E+00    0.340E+01
DAV:  47    -0.487382236011E+03    0.94011E-01   -0.26797E-01 25744   0.219E+00    0.333E+01
DAV:  48    -0.487765105437E+03   -0.38287E+00   -0.11474E+00 26480   0.498E+00    0.362E+01
DAV:  49    -0.486943810429E+03    0.82130E+00   -0.25360E+00 24408   0.690E+00    0.375E+01
DAV:  50    -0.486730864728E+03    0.21295E+00   -0.40572E-01 21896   0.237E+00    0.371E+01
DAV:  51    -0.492653453640E+03   -0.59226E+01   -0.27792E+01 22686   0.170E+01    0.622E+01
DAV:  52    -0.490007535350E+03    0.26459E+01   -0.11011E+01 24256   0.160E+01    0.515E+01
DAV:  53    -0.489619362502E+03    0.38817E+00   -0.46664E+00 25280   0.102E+01    0.472E+01
DAV:  54    -0.489806198134E+03   -0.18684E+00   -0.28114E+00 24976   0.781E+00    0.457E+01
DAV:  55    -0.489841705743E+03   -0.35508E-01   -0.31693E-01 20384   0.162E+00    0.461E+01
DAV:  56    -0.495641349368E+03   -0.57996E+01   -0.28221E+01 24560   0.241E+01    0.636E+01
DAV:  57    -0.494092255024E+03    0.15491E+01   -0.23054E+01 25740   0.256E+01    0.559E+01
DAV:  58    -0.493229732194E+03    0.86252E+00   -0.61948E+00 25128   0.116E+01    0.523E+01
DAV:  59    -0.493498358753E+03   -0.26863E+00   -0.46583E+00 25368   0.100E+01    0.491E+01
DAV:  60    -0.493214504036E+03    0.28385E+00   -0.43724E+00 26472   0.105E+01    0.488E+01
DAV:  61    -0.499129738208E+03   -0.59152E+01   -0.12742E+02 26616   0.342E+01    0.617E+01
DAV:  62    -0.491524436062E+03    0.76053E+01   -0.74558E+01 26680   0.306E+01    0.378E+01
DAV:  63    -0.490820396526E+03    0.70404E+00   -0.15224E+01 26200   0.172E+01    0.330E+01
DAV:  64    -0.489567201187E+03    0.12532E+01   -0.43646E+00 25904   0.107E+01    0.276E+01
DAV:  65    -0.489698784480E+03   -0.13158E+00   -0.96112E-01 24056   0.490E+00    0.265E+01
DAV:  66    -0.491724553250E+03   -0.20258E+01   -0.65121E+00 26616   0.112E+01    0.318E+01
DAV:  67    -0.490175933886E+03    0.15486E+01   -0.47309E+00 26472   0.896E+00    0.263E+01
DAV:  68    -0.490447727965E+03   -0.27179E+00   -0.87690E-01 26184   0.432E+00    0.267E+01
DAV:  69    -0.490619292113E+03   -0.17156E+00   -0.45585E-01 25936   0.342E+00    0.264E+01
DAV:  70    -0.490661298568E+03   -0.42006E-01   -0.61157E-02 21816   0.103E+00    0.264E+01
DAV:  71    -0.491979564558E+03   -0.13183E+01   -0.59202E+00 26528   0.117E+01    0.341E+01
DAV:  72    -0.490426501722E+03    0.15531E+01   -0.50040E+00 26376   0.116E+01    0.253E+01
DAV:  73    -0.490486320457E+03   -0.59819E-01   -0.14820E+00 25664   0.583E+00    0.252E+01
DAV:  74    -0.490278334798E+03    0.20799E+00   -0.37617E-01 24080   0.291E+00    0.238E+01
DAV:  75    -0.490338476792E+03   -0.60142E-01   -0.16551E-01 24280   0.185E+00    0.236E+01
DAV:  76    -0.492052463982E+03   -0.17140E+01   -0.47681E+00 26664   0.123E+01    0.284E+01
DAV:  77    -0.491118799973E+03    0.93366E+00   -0.60954E+00 26696   0.139E+01    0.236E+01
DAV:  78    -0.490821546324E+03    0.29725E+00   -0.16396E+00 26000   0.627E+00    0.208E+01
DAV:  79    -0.490949030524E+03   -0.12748E+00   -0.98173E-01 25840   0.520E+00    0.214E+01
DAV:  80    -0.490965609286E+03   -0.16579E-01   -0.11941E-01 18088   0.948E-01    0.215E+01
DAV:  81    -0.493499011275E+03   -0.25334E+01   -0.82725E+00 26768   0.158E+01    0.310E+01
DAV:  82    -0.491324545458E+03    0.21745E+01   -0.76462E+00 26424   0.156E+01    0.234E+01
DAV:  83    -0.491222760746E+03    0.10178E+00   -0.22144E+00 26832   0.731E+00    0.216E+01
DAV:  84    -0.490966142585E+03    0.25662E+00   -0.11869E+00 26416   0.575E+00    0.207E+01
DAV:  85    -0.490991994869E+03   -0.25852E-01   -0.65640E-01 26248   0.401E+00    0.207E+01
DAV:  86    -0.492837435716E+03   -0.18454E+01   -0.45197E+00 26672   0.118E+01    0.290E+01
DAV:  87    -0.491049247711E+03    0.17882E+01   -0.39862E+00 26552   0.113E+01    0.216E+01
DAV:  88    -0.490986426566E+03    0.62821E-01   -0.95298E-01 26584   0.481E+00    0.207E+01
DAV:  89    -0.491112297107E+03   -0.12587E+00   -0.21055E-01 25000   0.186E+00    0.217E+01
DAV:  90    -0.490971816998E+03    0.14048E+00   -0.21304E-01 26136   0.241E+00    0.214E+01
DAV:  91    -0.492339669742E+03   -0.13679E+01   -0.46151E+00 26520   0.111E+01    0.290E+01
DAV:  92    -0.490924375261E+03    0.14153E+01   -0.41199E+00 26536   0.109E+01    0.215E+01
DAV:  93    -0.490945950576E+03   -0.21575E-01   -0.55735E-01 25976   0.306E+00    0.212E+01
DAV:  94    -0.491135746896E+03   -0.18980E+00   -0.37047E-01 26688   0.319E+00    0.218E+01
DAV:  95    -0.491289771172E+03   -0.15402E+00   -0.43976E-01 26600   0.350E+00    0.219E+01
DAV:  96    -0.494590286553E+03   -0.33005E+01   -0.11742E+01 26680   0.184E+01    0.335E+01
DAV:  97    -0.491369731611E+03    0.32206E+01   -0.11106E+01 26608   0.188E+01    0.221E+01
DAV:  98    -0.491109933066E+03    0.25980E+00   -0.16845E+00 25984   0.550E+00    0.193E+01
DAV:  99    -0.491150881308E+03   -0.40948E-01   -0.28963E-01 23944   0.265E+00    0.196E+01
DAV: 100    -0.491216142034E+03   -0.65261E-01   -0.63389E-02 22264   0.121E+00    0.200E+01
DAV: 101    -0.492964464108E+03   -0.17483E+01   -0.52564E+00 26832   0.122E+01    0.250E+01
DAV: 102    -0.492202333606E+03    0.76213E+00   -0.51368E+00 26768   0.127E+01    0.220E+01
DAV: 103    -0.491969655031E+03    0.23268E+00   -0.22768E+00 26704   0.785E+00    0.195E+01
DAV: 104    -0.492052044639E+03   -0.82390E-01   -0.11756E+00 26264   0.574E+00    0.197E+01
DAV: 105    -0.491985383202E+03    0.66661E-01   -0.38247E-01 24792   0.313E+00    0.187E+01
DAV: 106    -0.492961714892E+03   -0.97633E+00   -0.12637E+00 26624   0.594E+00    0.222E+01
DAV: 107    -0.492429305528E+03    0.53241E+00   -0.21691E+00 26704   0.806E+00    0.199E+01
DAV: 108    -0.492109479531E+03    0.31983E+00   -0.19351E+00 26680   0.713E+00    0.182E+01
DAV: 109    -0.492109392914E+03    0.86617E-04   -0.10975E+00 26640   0.519E+00    0.176E+01
DAV: 110    -0.492026028720E+03    0.83364E-01   -0.41805E-01 25904   0.340E+00    0.169E+01
DAV: 111    -0.493803680411E+03   -0.17777E+01   -0.55931E+00 26632   0.119E+01    0.241E+01
DAV: 112    -0.492482248947E+03    0.13214E+01   -0.61216E+00 26680   0.121E+01    0.183E+01
DAV: 113    -0.491935572159E+03    0.54668E+00   -0.17997E+00 26336   0.627E+00    0.147E+01
DAV: 114    -0.491627173856E+03    0.30840E+00   -0.15700E+00 25200   0.613E+00    0.132E+01
DAV: 115    -0.491282559355E+03    0.34461E+00   -0.12824E+00 25744   0.615E+00    0.120E+01
DAV: 116    -0.492552280574E+03   -0.12697E+01   -0.47364E+00 26616   0.115E+01    0.223E+01
DAV: 117    -0.490871632979E+03    0.16806E+01   -0.37308E+00 26120   0.104E+01    0.113E+01
DAV: 118    -0.491021972774E+03   -0.15034E+00   -0.43223E-01 23344   0.273E+00    0.106E+01
DAV: 119    -0.491000705840E+03    0.21267E-01   -0.13539E-01 21744   0.174E+00    0.107E+01
DAV: 120    -0.490995116988E+03    0.55889E-02   -0.24933E-02 22672   0.487E-01    0.107E+01
DAV: 121    -0.490471643592E+03    0.52347E+00   -0.10698E+00 24520   0.477E+00    0.118E+01
DAV: 122    -0.490448359355E+03    0.23284E-01   -0.77894E-01 26104   0.482E+00    0.121E+01
DAV: 123    -0.490453120772E+03   -0.47614E-02   -0.90535E-02 22320   0.153E+00    0.112E+01
DAV: 124    -0.490731265375E+03   -0.27814E+00   -0.27375E-01 26248   0.218E+00    0.109E+01
DAV: 125    -0.491215638422E+03   -0.48437E+00   -0.13097E+00 26192   0.512E+00    0.107E+01
DAV: 126    -0.491993456327E+03   -0.77782E+00   -0.17155E+00 25960   0.673E+00    0.126E+01
DAV: 127    -0.496146853036E+03   -0.41534E+01   -0.78305E+00 26896   0.137E+01    0.335E+01
DAV: 128    -0.501437356574E+03   -0.52905E+01   -0.26051E+00 26984   0.543E+00    0.453E+01
DAV: 129    -0.504350902188E+03   -0.29135E+01   -0.95031E-01 22272   0.259E+00    0.510E+01
DAV: 130    -0.493342573749E+03    0.11008E+02   -0.62809E+00 26968   0.123E+01    0.270E+01
DAV: 131    -0.499016426378E+03   -0.56739E+01   -0.42323E+00 26184   0.108E+01    0.417E+01
DAV: 132    -0.502317734781E+03   -0.33013E+01   -0.19363E+00 26600   0.643E+00    0.483E+01
DAV: 133    -0.504337166622E+03   -0.20194E+01   -0.61033E-01 26184   0.333E+00    0.513E+01
DAV: 134    -0.505153041340E+03   -0.81587E+00   -0.19718E-01 19000   0.167E+00    0.526E+01
DAV: 135    -0.505967115551E+03   -0.81407E+00   -0.89934E-02 21768   0.134E+00    0.539E+01
DAV: 136    -0.494734273918E+03    0.11233E+02   -0.79683E+00 26520   0.151E+01    0.308E+01
DAV: 137    -0.491802708133E+03    0.29316E+01   -0.42598E+00 26728   0.819E+00    0.163E+01
DAV: 138    -0.498292456711E+03   -0.64897E+01   -0.65011E+00 26280   0.127E+01    0.373E+01
DAV: 139    -0.501969657620E+03   -0.36772E+01   -0.14969E+00 26536   0.520E+00    0.451E+01
DAV: 140    -0.504234467012E+03   -0.22648E+01   -0.10032E+00 25392   0.400E+00    0.498E+01
DAV: 141    -0.505045341160E+03   -0.81087E+00   -0.33658E+00 26192   0.978E+00    0.527E+01
DAV: 142    -0.505198623249E+03   -0.15328E+00   -0.26004E+00 25784   0.939E+00    0.501E+01
DAV: 143    -0.504367282822E+03    0.83134E+00   -0.78093E-01 25648   0.404E+00    0.487E+01
DAV: 144    -0.503555962844E+03    0.81132E+00   -0.66709E-01 25880   0.437E+00    0.472E+01
DAV: 145    -0.503193500770E+03    0.36246E+00   -0.26908E-01 23912   0.249E+00    0.465E+01
DAV: 146    -0.503048056425E+03    0.14544E+00   -0.13426E+00 26712   0.657E+00    0.468E+01
DAV: 147    -0.502499802915E+03    0.54825E+00   -0.10779E+00 26568   0.598E+00    0.453E+01
DAV: 148    -0.502198948848E+03    0.30085E+00   -0.19701E-01 24296   0.204E+00    0.451E+01
DAV: 149    -0.501820718454E+03    0.37823E+00   -0.12488E-01 23488   0.156E+00    0.446E+01
DAV: 150    -0.501376378565E+03    0.44434E+00   -0.11427E-01 23320   0.155E+00
 -----------------------------------------------------------------------------
|                                                                             |
|           W    W    AA    RRRRR   N    N  II  N    N   GGGG   !!!           |
|           W    W   A  A   R    R  NN   N  II  NN   N  G    G  !!!           |
|           W    W  A    A  R    R  N N  N  II  N N  N  G       !!!           |
|           W WW W  AAAAAA  RRRRR   N  N N  II  N  N N  G  GGG   !            |
|           WW  WW  A    A  R   R   N   NN  II  N   NN  G    G                |
|           W    W  A    A  R    R  N    N  II  N    N   GGGG   !!!           |
|                                                                             |
|     The electronic self-consistency was not achieved in the given           |
|     number of steps (NELM). The forces and other quantities evaluated       |
|     might not be reliable so examine the results carefully. If you find     |
|     spurious results, we suggest increasing NELM, if you were close to      |
|     convergence or switching to a different ALGO or adjusting the           |
|     density mixing parameters otherwise.                                    |
|                                                                             |
 -----------------------------------------------------------------------------

   1 F= -.50137638E+03 E0= -.50137657E+03  d E =-.501376E+03  mag=    65.1435
 curvature:   0.00 expect dE= 0.000E+00 dE for cont linesearch  0.000E+00
 trial: gam= 0.00000 g(F)=  0.652E+00 g(S)=  0.000E+00 ort = 0.000E+00 (trialstep = 0.100E+01)
 search vector abs. value=  0.652E+00
 bond charge predicted
       N       E                     dE             d eps       ncg     rms          rms(c)
DAV:   1    -0.497684819095E+03    0.41359E+01   -0.17320E+02 16516   0.421E+01    0.430E+01
DAV:   2    -0.113004311562E+04   -0.63236E+03   -0.24147E+03 26112   0.255E+02    0.264E+02
DAV:   3    -0.621322116994E+03    0.50872E+03   -0.62355E+02 23088   0.999E+01    0.137E+02
DAV:   4    -0.527700762196E+03    0.93621E+02   -0.34868E+02 25960   0.784E+01    0.800E+01
DAV:   5    -0.499964975110E+03    0.27736E+02   -0.13259E+02 25408   0.605E+01    0.569E+01
DAV:   6    -0.497252528996E+03    0.27124E+01   -0.84531E+01 25600   0.433E+01    0.464E+01
DAV:   7    -0.496449397874E+03    0.80313E+00   -0.33663E+01 25512   0.273E+01    0.369E+01
DAV:   8    -0.492845785242E+03    0.36036E+01   -0.16424E+01 24968   0.206E+01    0.176E+01
DAV:   9    -0.492330517533E+03    0.51527E+00   -0.37103E+00 24176   0.103E+01    0.119E+01
DAV:  10    -0.492425400621E+03   -0.94883E-01   -0.10888E+00 22792   0.518E+00    0.121E+01
DAV:  11    -0.492364216978E+03    0.61184E-01   -0.12559E-01 18472   0.141E+00    0.115E+01
DAV:  12    -0.492444400442E+03   -0.80183E-01   -0.18738E-01 26680   0.203E+00    0.127E+01
DAV:  13    -0.492362584322E+03    0.81816E-01   -0.14535E-01 25176   0.184E+00    0.116E+01
DAV:  14    -0.492501504676E+03   -0.13892E+00   -0.49613E-01 26264   0.317E+00    0.140E+01
DAV:  15    -0.492382793005E+03    0.11871E+00   -0.21814E-01 25776   0.220E+00    0.130E+01
DAV:  16    -0.492385362436E+03   -0.25694E-02   -0.17555E-02 17768   0.339E-01    0.130E+01
DAV:  17    -0.492388682435E+03   -0.33200E-02   -0.46078E-02 26456   0.100E+00    0.129E+01
DAV:  18    -0.492376705426E+03    0.11977E-01   -0.49399E-03 18608   0.254E-01    0.128E+01
DAV:  19    -0.492376604822E+03    0.10060E-03   -0.41687E-02 26016   0.101E+00    0.125E+01
DAV:  20    -0.492357762280E+03    0.18843E-01   -0.62119E-02 25504   0.120E+00    0.127E+01
DAV:  21    -0.492360302109E+03   -0.25398E-02   -0.80229E-03 22144   0.355E-01    0.126E+01
DAV:  22    -0.492331087133E+03    0.29215E-01   -0.21827E-02 26688   0.629E-01    0.124E+01
DAV:  23    -0.492247080212E+03    0.84007E-01   -0.12620E-01 26704   0.185E+00    0.124E+01
DAV:  24    -0.492003849667E+03    0.24323E+00   -0.31605E-01 25192   0.272E+00    0.119E+01
DAV:  25    -0.491761777664E+03    0.24207E+00   -0.21273E-01 24120   0.230E+00    0.113E+01
DAV:  26    -0.491581627825E+03    0.18015E+00   -0.13526E-01 22800   0.171E+00    0.111E+01
DAV:  27    -0.491297862179E+03    0.28377E+00   -0.13407E-01 21336   0.163E+00    0.106E+01
DAV:  28    -0.491084912124E+03    0.21295E+00   -0.24621E-01 23776   0.248E+00    0.107E+01
DAV:  29    -0.490404165506E+03    0.68075E+00   -0.69947E-01 22296   0.370E+00    0.915E+00
DAV:  30    -0.490104135527E+03    0.30003E+00   -0.44298E-01 22928   0.294E+00    0.789E+00
DAV:  31    -0.490002846688E+03    0.10129E+00   -0.58432E-01 24136   0.364E+00    0.827E+00
DAV:  32    -0.489812864182E+03    0.18998E+00   -0.35315E-01 24368   0.344E+00    0.676E+00
DAV:  33    -0.489856650651E+03   -0.43786E-01   -0.22096E-01 22912   0.228E+00    0.686E+00
DAV:  34    -0.489836490351E+03    0.20160E-01   -0.14939E-01 23448   0.231E+00    0.657E+00
DAV:  35    -0.489861851047E+03   -0.25361E-01   -0.52538E-02 22896   0.117E+00    0.656E+00
DAV:  36    -0.489833432045E+03    0.28419E-01   -0.14646E-02 21512   0.633E-01    0.652E+00
DAV:  37    -0.489828654725E+03    0.47773E-02   -0.65806E-03 25176   0.424E-01    0.654E+00
DAV:  38    -0.489825886901E+03    0.27678E-02   -0.18586E-02 26296   0.756E-01    0.638E+00
DAV:  39    -0.489737935792E+03    0.87951E-01   -0.21922E-01 26600   0.257E+00    0.723E+00
DAV:  40    -0.489412810163E+03    0.32513E+00   -0.24335E-01 24984   0.225E+00    0.624E+00
DAV:  41    -0.489392885221E+03    0.19925E-01   -0.41144E-01 26224   0.350E+00    0.717E+00
DAV:  42    -0.489440297837E+03   -0.47413E-01   -0.35252E-01 24512   0.310E+00    0.552E+00
DAV:  43    -0.489822083455E+03   -0.38179E+00   -0.22429E-01 24704   0.253E+00    0.561E+00
DAV:  44    -0.490050853157E+03   -0.22877E+00   -0.18245E-01 23896   0.242E+00    0.507E+00
DAV:  45    -0.490303516109E+03   -0.25266E+00   -0.14048E-01 24368   0.200E+00    0.490E+00
DAV:  46    -0.490621766712E+03   -0.31825E+00   -0.19923E-01 23104   0.198E+00    0.448E+00
DAV:  47    -0.490345941623E+03    0.27583E+00   -0.25371E-01 25320   0.270E+00    0.542E+00
DAV:  48    -0.490567547579E+03   -0.22161E+00   -0.17529E-01 23568   0.226E+00    0.411E+00
DAV:  49    -0.491197230504E+03   -0.62968E+00   -0.22611E-01 21744   0.192E+00    0.454E+00
DAV:  50    -0.491586894280E+03   -0.38966E+00   -0.18555E-01 19848   0.149E+00    0.455E+00
DAV:  51    -0.500095337414E+03   -0.85084E+01   -0.86501E+00 27080   0.151E+01    0.409E+01
DAV:  52    -0.492761561308E+03    0.73338E+01   -0.33201E+00 25576   0.818E+00    0.228E+01
DAV:  53    -0.491595803358E+03    0.11658E+01   -0.13351E+00 26760   0.386E+00    0.121E+01
DAV:  54    -0.501682903209E+03   -0.10087E+02   -0.80733E+00 26864   0.141E+01    0.467E+01
DAV:  55    -0.512885804046E+03   -0.11203E+02   -0.41532E+00 27384   0.795E+00    0.668E+01
DAV:  56    -0.519802291380E+03   -0.69165E+01   -0.13334E+00 25056   0.376E+00    0.744E+01
DAV:  57    -0.498361678349E+03    0.21441E+02   -0.71161E+00 26736   0.148E+01    0.410E+01
DAV:  58    -0.510501468765E+03   -0.12140E+02   -0.46220E+00 26904   0.922E+00    0.637E+01
DAV:  59    -0.518363959310E+03   -0.78625E+01   -0.12447E+00 26632   0.421E+00    0.723E+01
DAV:  60    -0.523545765118E+03   -0.51818E+01   -0.51435E-01 25136   0.266E+00    0.772E+01
DAV:  61    -0.526070368690E+03   -0.25246E+01   -0.21918E-01 17728   0.123E+00    0.794E+01
DAV:  62    -0.500018816389E+03    0.26052E+02   -0.79486E+00 27096   0.152E+01    0.451E+01
DAV:  63    -0.493918449366E+03    0.61004E+01   -0.43696E+00 27632   0.778E+00    0.240E+01
DAV:  64    -0.506461859508E+03   -0.12543E+02   -0.72450E+00 26830   0.130E+01    0.567E+01
DAV:  65    -0.517369893755E+03   -0.10908E+02   -0.26749E+00 27232   0.670E+00    0.707E+01
DAV:  66    -0.523861263737E+03   -0.64914E+01   -0.81636E-01 26920   0.341E+00    0.771E+01
DAV:  67    -0.500704286430E+03    0.23157E+02   -0.73499E+00 26968   0.142E+01    0.448E+01
DAV:  68    -0.514847498451E+03   -0.14143E+02   -0.47253E+00 27040   0.100E+01    0.684E+01
DAV:  69    -0.523394730073E+03   -0.85472E+01   -0.11201E+00 26800   0.436E+00    0.764E+01
DAV:  70    -0.528064087597E+03   -0.46694E+01   -0.41997E-01 25072   0.223E+00    0.807E+01
DAV:  71    -0.530107556510E+03   -0.20435E+01   -0.15329E-01 20712   0.118E+00    0.825E+01
DAV:  72    -0.503244790513E+03    0.26863E+02   -0.79452E+00 27032   0.148E+01    0.506E+01
DAV:  73    -0.517484326672E+03   -0.14240E+02   -0.37720E+00 26880   0.928E+00    0.710E+01
DAV:  74    -0.526017545526E+03   -0.85332E+01   -0.10538E+00 27040   0.413E+00    0.789E+01
DAV:  75    -0.502931149930E+03    0.23086E+02   -0.65968E+00 27040   0.132E+01    0.492E+01
DAV:  76    -0.517697559161E+03   -0.14766E+02   -0.40895E+00 27024   0.963E+00    0.712E+01
DAV:  77    -0.501396379504E+03    0.16301E+02   -0.45082E+00 27040   0.106E+01    0.449E+01
DAV:  78    -0.496754958883E+03    0.46414E+01   -0.22206E+00 27432   0.516E+00    0.313E+01
DAV:  79    -0.495527821751E+03    0.12271E+01   -0.58837E-01 22160   0.221E+00    0.261E+01
DAV:  80    -0.495214157303E+03    0.31366E+00   -0.14846E-01 17216   0.127E+00    0.248E+01
DAV:  81    -0.495134090664E+03    0.80067E-01   -0.41158E-02 19512   0.828E-01    0.242E+01
DAV:  82    -0.495254336720E+03   -0.12025E+00   -0.30210E-02 25344   0.934E-01    0.245E+01
DAV:  83    -0.495336047495E+03   -0.81711E-01   -0.25730E-02 25296   0.102E+00    0.246E+01
DAV:  84    -0.495581089683E+03   -0.24504E+00   -0.16304E-02 25288   0.590E-01    0.253E+01
DAV:  85    -0.495978718193E+03   -0.39763E+00   -0.23120E-02 24392   0.607E-01    0.265E+01
DAV:  86    -0.496333396258E+03   -0.35468E+00   -0.22305E-02 24312   0.535E-01    0.275E+01
DAV:  87    -0.496094009108E+03    0.23939E+00   -0.13770E-01 26240   0.190E+00    0.271E+01
DAV:  88    -0.496630772622E+03   -0.53676E+00   -0.11520E-01 25960   0.182E+00    0.284E+01
DAV:  89    -0.496990603462E+03   -0.35983E+00   -0.31732E-02 22400   0.729E-01    0.292E+01
DAV:  90    -0.497168835666E+03   -0.17823E+00   -0.97919E-03 18008   0.275E-01    0.296E+01
DAV:  91    -0.497181204664E+03   -0.12369E-01   -0.19107E-03 18552   0.146E-01    0.296E+01
DAV:  92    -0.498039413040E+03   -0.85821E+00   -0.39864E-01 26624   0.342E+00    0.321E+01
DAV:  93    -0.497963540468E+03    0.75873E-01   -0.27961E-01 26200   0.332E+00    0.315E+01
DAV:  94    -0.498024075005E+03   -0.60535E-01   -0.76169E-02 25192   0.150E+00    0.317E+01
DAV:  95    -0.498036050372E+03   -0.11975E-01   -0.26691E-02 23216   0.788E-01    0.316E+01
DAV:  96    -0.498014627248E+03    0.21423E-01   -0.80546E-03 20728   0.430E-01    0.316E+01
DAV:  97    -0.510357152903E+03   -0.12343E+02   -0.60855E+00 26760   0.116E+01    0.585E+01
DAV:  98    -0.518852232370E+03   -0.84951E+01   -0.22993E+00 26448   0.596E+00    0.707E+01
DAV:  99    -0.523276400885E+03   -0.44242E+01   -0.69926E-01 22480   0.261E+00    0.758E+01
DAV: 100    -0.525843499497E+03   -0.25671E+01   -0.21556E-01 18824   0.118E+00    0.783E+01
DAV: 101    -0.526840834052E+03   -0.99733E+00   -0.79982E-02 18584   0.798E-01    0.793E+01
DAV: 102    -0.529073099191E+03   -0.22323E+01   -0.28142E-01 26208   0.232E+00    0.820E+01
DAV: 103    -0.530289534160E+03   -0.12164E+01   -0.16063E-01 25912   0.194E+00    0.829E+01
DAV: 104    -0.531512916248E+03   -0.12234E+01   -0.11661E-01 23512   0.132E+00    0.841E+01
DAV: 105    -0.531928310056E+03   -0.41539E+00   -0.35233E-02 19136   0.667E-01    0.845E+01
DAV: 106    -0.531968682821E+03   -0.40373E-01   -0.80707E-03 18456   0.288E-01    0.845E+01
DAV: 107    -0.513737172220E+03    0.18232E+02   -0.40506E+00 26904   0.910E+00    0.641E+01
DAV: 108    -0.524257258201E+03   -0.10520E+02   -0.19289E+00 26576   0.622E+00    0.768E+01
DAV: 109    -0.509488960433E+03    0.14768E+02   -0.34624E+00 26976   0.853E+00    0.575E+01
DAV: 110    -0.504698263079E+03    0.47907E+01   -0.12394E+00 27176   0.386E+00    0.477E+01
DAV: 111    -0.503245620504E+03    0.14526E+01   -0.42792E-01 22448   0.221E+00    0.437E+01
DAV: 112    -0.502062866835E+03    0.11828E+01   -0.33080E-01 25472   0.249E+00    0.414E+01
DAV: 113    -0.515530499990E+03   -0.13468E+02   -0.49213E+00 26864   0.105E+01    0.658E+01
DAV: 114    -0.507495006334E+03    0.80355E+01   -0.18817E+00 26608   0.537E+00    0.530E+01
DAV: 115    -0.504762584730E+03    0.27324E+01   -0.43961E-01 25664   0.220E+00    0.473E+01
DAV: 116    -0.504587996163E+03    0.17459E+00   -0.12774E-01 17840   0.116E+00    0.467E+01
DAV: 117    -0.503509981160E+03    0.10780E+01   -0.63310E-01 23992   0.336E+00    0.442E+01
DAV: 118    -0.503970670304E+03   -0.46069E+00   -0.37245E-01 25176   0.312E+00    0.450E+01
DAV: 119    -0.503908720643E+03    0.61950E-01   -0.45494E-02 19696   0.821E-01    0.449E+01
DAV: 120    -0.503941125795E+03   -0.32405E-01   -0.94689E-03 17672   0.331E-01    0.450E+01
DAV: 121    -0.503936037771E+03    0.50880E-02   -0.10076E-03 20808   0.901E-02    0.449E+01
DAV: 122    -0.510385271091E+03   -0.64492E+01   -0.27426E+00 25800   0.687E+00    0.586E+01
DAV: 123    -0.519332818810E+03   -0.89475E+01   -0.19009E+00 26496   0.667E+00    0.700E+01
DAV: 124    -0.523926557219E+03   -0.45937E+01   -0.70656E-01 22096   0.248E+00    0.754E+01
DAV: 125    -0.526248458780E+03   -0.23219E+01   -0.26727E-01 16824   0.146E+00    0.776E+01
DAV: 126    -0.527204622368E+03   -0.95616E+00   -0.11235E-01 18208   0.941E-01    0.783E+01
DAV: 127    -0.516965436344E+03    0.10239E+02   -0.33199E+00 23816   0.779E+00    0.666E+01
DAV: 128    -0.508779331993E+03    0.81861E+01   -0.21655E+00 24992   0.702E+00    0.559E+01
DAV: 129    -0.505708284448E+03    0.30710E+01   -0.69751E-01 20960   0.254E+00    0.514E+01
DAV: 130    -0.504220272041E+03    0.14880E+01   -0.31545E-01 17496   0.173E+00    0.494E+01
DAV: 131    -0.503869745569E+03    0.35053E+00   -0.93302E-02 19080   0.105E+00    0.492E+01
DAV: 132    -0.506321771446E+03   -0.24520E+01   -0.51541E+00 21136   0.967E+00    0.577E+01
DAV: 133    -0.508171000676E+03   -0.18492E+01   -0.14330E+00 20952   0.612E+00    0.592E+01
DAV: 134    -0.509775716507E+03   -0.16047E+01   -0.59587E-01 20312   0.272E+00    0.606E+01
DAV: 135    -0.510167820139E+03   -0.39210E+00   -0.22466E-01 19248   0.151E+00    0.611E+01
DAV: 136    -0.510256005434E+03   -0.88185E-01   -0.59248E-02 21744   0.848E-01    0.612E+01
DAV: 137    -0.512608317309E+03   -0.23523E+01   -0.21533E+00 23568   0.625E+00    0.633E+01
DAV: 138    -0.512810209296E+03   -0.20189E+00   -0.80345E-01 22898   0.496E+00    0.629E+01
DAV: 139    -0.512961935819E+03   -0.15173E+00   -0.95561E-02 19392   0.101E+00    0.633E+01
DAV: 140    -0.512942312698E+03    0.19623E-01   -0.12742E-01 22912   0.152E+00    0.634E+01
DAV: 141    -0.511453826862E+03    0.14885E+01   -0.59365E-01 20712   0.272E+00    0.618E+01
DAV: 142    -0.504766932715E+03    0.66869E+01   -0.43743E+00 23992   0.818E+00    0.589E+01
DAV: 143    -0.512134014705E+03   -0.73671E+01   -0.32647E+00 25264   0.961E+00    0.677E+01
DAV: 144    -0.512148825725E+03   -0.14811E-01   -0.95413E-01 21752   0.394E+00    0.685E+01
DAV: 145    -0.511410833457E+03    0.73799E+00   -0.47689E-01 22176   0.322E+00    0.680E+01
DAV: 146    -0.510943807996E+03    0.46703E+00   -0.20614E-01 22096   0.186E+00    0.676E+01
DAV: 147    -0.513575841973E+03   -0.26320E+01   -0.12734E+00 24480   0.477E+00    0.700E+01
DAV: 148    -0.512291188280E+03    0.12847E+01   -0.71895E-01 24512   0.426E+00    0.696E+01
DAV: 149    -0.510441379878E+03    0.18498E+01   -0.74897E-01 23560   0.308E+00    0.679E+01
DAV: 150    -0.503104441493E+03    0.73369E+01   -0.15693E+00 23976   0.555E+00
 -----------------------------------------------------------------------------
|                                                                             |
|           W    W    AA    RRRRR   N    N  II  N    N   GGGG   !!!           |
|           W    W   A  A   R    R  NN   N  II  NN   N  G    G  !!!           |
|           W    W  A    A  R    R  N N  N  II  N N  N  G       !!!           |
|           W WW W  AAAAAA  RRRRR   N  N N  II  N  N N  G  GGG   !            |
|           WW  WW  A    A  R   R   N   NN  II  N   NN  G    G                |
|           W    W  A    A  R    R  N    N  II  N    N   GGGG   !!!           |
|                                                                             |
|     The electronic self-consistency was not achieved in the given           |
|     number of steps (NELM). The forces and other quantities evaluated       |
|     might not be reliable so examine the results carefully. If you find     |
|     spurious results, we suggest increasing NELM, if you were close to      |
|     convergence or switching to a different ALGO or adjusting the           |
|     density mixing parameters otherwise.                                    |
|                                                                             |
 -----------------------------------------------------------------------------

   2 F= -.50310444E+03 E0= -.50310400E+03  d E =-.172806E+01  mag=    64.8496
 trial-energy change:   -1.728063  1 .order    0.152840   -0.652266    0.957947
 step:   0.4051(harm=  0.4051)  dis= 0.01188  next Energy=  -501.508489 (dE=-0.132E+00)
 bond charge predicted
       N       E                     dE             d eps       ncg     rms          rms(c)
DAV:   1    -0.497208057364E+03    0.13233E+02   -0.63688E+01 16360   0.211E+01    0.537E+01
DAV:   2    -0.130882864663E+04   -0.81162E+03   -0.32064E+03 25816   0.291E+02    0.336E+02
DAV:   3    -0.639490572352E+03    0.66934E+03   -0.91417E+02 21386   0.100E+02    0.149E+02
DAV:   4    -0.573300891052E+03    0.66190E+02   -0.51474E+02 26152   0.104E+02    0.132E+02
DAV:   5    -0.485527868097E+03    0.87773E+02   -0.23436E+02 24720   0.744E+01    0.432E+01
DAV:   6    -0.506392524841E+03   -0.20865E+02   -0.11631E+02 25560   0.500E+01    0.626E+01
DAV:   7    -0.496608114459E+03    0.97844E+01   -0.41331E+01 23120   0.348E+01    0.392E+01
DAV:   8    -0.492274421480E+03    0.43337E+01   -0.20168E+01 22984   0.223E+01    0.262E+01
DAV:   9    -0.496627435731E+03   -0.43530E+01   -0.16738E+01 25656   0.191E+01    0.357E+01
DAV:  10    -0.493910188865E+03    0.27172E+01   -0.56097E+00 24072   0.113E+01    0.192E+01
DAV:  11    -0.493782875760E+03    0.12731E+00   -0.33762E+00 25576   0.749E+00    0.155E+01
DAV:  12    -0.494653032452E+03   -0.87016E+00   -0.16607E+00 25008   0.599E+00    0.155E+01
DAV:  13    -0.494871883053E+03   -0.21885E+00   -0.72737E-01 23888   0.453E+00    0.142E+01
DAV:  14    -0.495263312421E+03   -0.39143E+00   -0.56943E-01 24656   0.344E+00    0.136E+01
DAV:  15    -0.495556568274E+03   -0.29326E+00   -0.56414E-01 23944   0.317E+00    0.135E+01
DAV:  16    -0.495594985779E+03   -0.38418E-01   -0.27303E-01 23488   0.261E+00    0.120E+01
DAV:  17    -0.495795673629E+03   -0.20069E+00   -0.49194E-01 23864   0.306E+00    0.124E+01
DAV:  18    -0.495777524251E+03    0.18149E-01   -0.47878E-01 23432   0.312E+00    0.112E+01
DAV:  19    -0.495799700668E+03   -0.22176E-01   -0.87332E-01 23976   0.447E+00    0.108E+01
DAV:  20    -0.495615895219E+03    0.18381E+00   -0.31801E+00 24104   0.875E+00    0.139E+01
DAV:  21    -0.494611223812E+03    0.10047E+01   -0.28863E+00 23776   0.814E+00    0.890E+00
DAV:  22    -0.494634977685E+03   -0.23754E-01   -0.14500E+00 24000   0.620E+00    0.787E+00
DAV:  23    -0.494890333610E+03   -0.25536E+00   -0.93159E-01 23928   0.566E+00    0.684E+00
DAV:  24    -0.494953766916E+03   -0.63433E-01   -0.34630E-01 24320   0.303E+00    0.568E+00
DAV:  25    -0.494986839655E+03   -0.33073E-01   -0.64383E-02 22728   0.123E+00    0.561E+00
DAV:  26    -0.494980331143E+03    0.65085E-02   -0.11933E-02 22872   0.355E-01    0.563E+00
DAV:  27    -0.494969648140E+03    0.10683E-01   -0.18737E-02 23632   0.708E-01    0.563E+00
DAV:  28    -0.494975819372E+03   -0.61712E-02   -0.17063E-02 24440   0.651E-01    0.553E+00
DAV:  29    -0.494977538418E+03   -0.17190E-02   -0.59461E-02 23760   0.121E+00    0.550E+00
DAV:  30    -0.494967314991E+03    0.10223E-01   -0.49222E-01 24756   0.337E+00    0.600E+00
DAV:  31    -0.494931027829E+03    0.36287E-01   -0.13723E+00 26160   0.593E+00    0.751E+00
DAV:  32    -0.494584455047E+03    0.34657E+00   -0.86732E-01 26112   0.530E+00    0.518E+00
DAV:  33    -0.494553977236E+03    0.30478E-01   -0.21058E-01 24576   0.207E+00    0.505E+00
DAV:  34    -0.494546200074E+03    0.77772E-02   -0.28391E-02 17952   0.561E-01    0.508E+00
DAV:  35    -0.494643019357E+03   -0.96819E-01   -0.19983E-01 23776   0.217E+00    0.461E+00
DAV:  36    -0.494654240636E+03   -0.11221E-01   -0.48580E-01 25080   0.336E+00    0.464E+00
DAV:  37    -0.494619346120E+03    0.34895E-01   -0.30859E-01 24448   0.262E+00    0.454E+00
DAV:  38    -0.494746305466E+03   -0.12696E+00   -0.14154E-01 24798   0.192E+00    0.474E+00
DAV:  39    -0.494808099116E+03   -0.61794E-01   -0.75015E-02 25040   0.141E+00    0.481E+00
DAV:  40    -0.494831035198E+03   -0.22936E-01   -0.64463E-02 26480   0.132E+00    0.503E+00
DAV:  41    -0.494853794680E+03   -0.22759E-01   -0.98394E-02 25944   0.180E+00    0.460E+00
DAV:  42    -0.494753388206E+03    0.10041E+00   -0.18286E-01 26344   0.227E+00    0.492E+00
DAV:  43    -0.494585000995E+03    0.16839E+00   -0.13042E-01 24488   0.172E+00    0.451E+00
DAV:  44    -0.494535257044E+03    0.49744E-01   -0.15558E-01 25640   0.192E+00    0.480E+00
DAV:  45    -0.494514668057E+03    0.20589E-01   -0.16522E-01 24560   0.191E+00    0.467E+00
DAV:  46    -0.494598030130E+03   -0.83362E-01   -0.11738E-01 25992   0.177E+00    0.513E+00
DAV:  47    -0.494150812063E+03    0.44722E+00   -0.24050E-01 23744   0.221E+00    0.540E+00
DAV:  48    -0.494461984231E+03   -0.31117E+00   -0.16165E-01 24968   0.220E+00    0.572E+00
DAV:  49    -0.494691632340E+03   -0.22965E+00   -0.22216E-01 25184   0.231E+00    0.643E+00
DAV:  50    -0.494755844766E+03   -0.64212E-01   -0.11029E-01 24304   0.135E+00    0.697E+00
DAV:  51    -0.494834968395E+03   -0.79124E-01   -0.24787E-01 25840   0.239E+00    0.645E+00
DAV:  52    -0.494063792975E+03    0.77118E+00   -0.15495E+00 24924   0.574E+00    0.541E+00
DAV:  53    -0.494399579104E+03   -0.33579E+00   -0.34589E-01 23720   0.245E+00    0.494E+00
DAV:  54    -0.494926883807E+03   -0.52730E+00   -0.32549E-01 24624   0.209E+00    0.559E+00
DAV:  55    -0.495183747972E+03   -0.25686E+00   -0.44820E-01 25824   0.278E+00    0.695E+00
DAV:  56    -0.494745133683E+03    0.43861E+00   -0.25855E+00 24576   0.619E+00    0.133E+01
DAV:  57    -0.494838126747E+03   -0.92993E-01   -0.30814E+00 25142   0.728E+00    0.731E+00
DAV:  58    -0.494721897409E+03    0.11623E+00   -0.29732E+00 24480   0.686E+00    0.108E+01
DAV:  59    -0.494508803551E+03    0.21309E+00   -0.38275E-01 24488   0.184E+00    0.124E+01
DAV:  60    -0.494121580133E+03    0.38722E+00   -0.23663E-01 25776   0.187E+00    0.144E+01
DAV:  61    -0.494047304646E+03    0.74275E-01   -0.25307E-02 19464   0.434E-01    0.146E+01
DAV:  62    -0.494773399930E+03   -0.72610E+00   -0.15466E+00 25048   0.439E+00    0.848E+00
DAV:  63    -0.494747600752E+03    0.25799E-01   -0.17328E-01 22968   0.180E+00    0.842E+00
DAV:  64    -0.494711529676E+03    0.36071E-01   -0.38029E-02 24920   0.929E-01    0.886E+00
DAV:  65    -0.494714038867E+03   -0.25092E-02   -0.39643E-03 17960   0.182E-01    0.883E+00
DAV:  66    -0.494715915297E+03   -0.18764E-02   -0.23950E-04 24848   0.282E-02    0.882E+00
DAV:  67    -0.494387469593E+03    0.32845E+00   -0.30835E-01 25816   0.245E+00    0.118E+01
DAV:  68    -0.494630645195E+03   -0.24318E+00   -0.15004E-01 26576   0.203E+00    0.981E+00
DAV:  69    -0.494807588985E+03   -0.17694E+00   -0.10489E-01 26592   0.128E+00    0.852E+00
DAV:  70    -0.494987617683E+03   -0.18003E+00   -0.82511E-02 26560   0.117E+00    0.745E+00
DAV:  71    -0.495162981572E+03   -0.17536E+00   -0.56981E-02 24680   0.122E+00    0.706E+00
DAV:  72    -0.495311362326E+03   -0.14838E+00   -0.11115E-01 25848   0.189E+00    0.711E+00
DAV:  73    -0.495701407444E+03   -0.39005E+00   -0.38876E-01 26304   0.302E+00    0.472E+00
DAV:  74    -0.496030000033E+03   -0.32859E+00   -0.25298E-01 24392   0.177E+00    0.396E+00
DAV:  75    -0.496222557900E+03   -0.19256E+00   -0.86545E-02 24008   0.124E+00    0.346E+00
DAV:  76    -0.496395404139E+03   -0.17285E+00   -0.66932E-02 23496   0.122E+00    0.334E+00
DAV:  77    -0.496349473147E+03    0.45931E-01   -0.52963E-01 26168   0.306E+00    0.283E+00
DAV:  78    -0.496589763153E+03   -0.24029E+00   -0.33983E-01 24208   0.236E+00    0.356E+00
DAV:  79    -0.496769417519E+03   -0.17965E+00   -0.22911E-01 24792   0.176E+00    0.386E+00
DAV:  80    -0.496820533500E+03   -0.51116E-01   -0.40945E-02 22832   0.801E-01    0.402E+00
DAV:  81    -0.496896346794E+03   -0.75813E-01   -0.48659E-02 24752   0.868E-01    0.424E+00
DAV:  82    -0.496827686685E+03    0.68660E-01   -0.29865E-02 23934   0.962E-01    0.427E+00
DAV:  83    -0.496900878886E+03   -0.73192E-01   -0.28883E-02 26376   0.945E-01    0.418E+00
DAV:  84    -0.497034764952E+03   -0.13389E+00   -0.57093E-02 24648   0.104E+00    0.417E+00
DAV:  85    -0.497212847894E+03   -0.17808E+00   -0.12227E-01 24840   0.157E+00    0.398E+00
DAV:  86    -0.497297059196E+03   -0.84211E-01   -0.62234E-02 23776   0.108E+00    0.385E+00
DAV:  87    -0.497306397551E+03   -0.93384E-02   -0.52985E-02 25960   0.120E+00    0.396E+00
DAV:  88    -0.497258116168E+03    0.48281E-01   -0.52510E-02 26160   0.130E+00    0.379E+00
DAV:  89    -0.497309704171E+03   -0.51588E-01   -0.15977E-02 26512   0.712E-01    0.362E+00
DAV:  90    -0.497319940698E+03   -0.10237E-01   -0.35562E-03 23120   0.271E-01    0.357E+00
DAV:  91    -0.497317390637E+03    0.25501E-02   -0.13189E-03 23616   0.160E-01    0.360E+00
DAV:  92    -0.497424699446E+03   -0.10731E+00   -0.95191E-02 25728   0.156E+00    0.371E+00
DAV:  93    -0.497337756411E+03    0.86943E-01   -0.33473E-02 26360   0.106E+00    0.368E+00
DAV:  94    -0.497345150213E+03   -0.73938E-02   -0.18716E-03 21576   0.194E-01    0.369E+00
DAV:  95    -0.497364817628E+03   -0.19667E-01   -0.37529E-03 26672   0.316E-01    0.365E+00
DAV:  96    -0.497400354287E+03   -0.35537E-01   -0.92692E-03 25928   0.485E-01    0.356E+00
DAV:  97    -0.497372477425E+03    0.27877E-01   -0.12838E-02 25792   0.580E-01    0.352E+00
DAV:  98    -0.497439859101E+03   -0.67382E-01   -0.28312E-02 26520   0.903E-01    0.346E+00
DAV:  99    -0.497479533404E+03   -0.39674E-01   -0.13260E-02 23176   0.510E-01    0.343E+00
DAV: 100    -0.497466035518E+03    0.13498E-01   -0.13280E-02 24264   0.552E-01    0.319E+00
DAV: 101    -0.497581549091E+03   -0.11551E+00   -0.24528E-02 24672   0.809E-01    0.296E+00
DAV: 102    -0.497853325240E+03   -0.27178E+00   -0.19203E-01 25544   0.213E+00    0.279E+00
DAV: 103    -0.497847623949E+03    0.57013E-02   -0.48208E-02 23736   0.124E+00    0.220E+00
DAV: 104    -0.497956928898E+03   -0.10930E+00   -0.35740E-02 23176   0.794E-01    0.176E+00
DAV: 105    -0.498074149783E+03   -0.11722E+00   -0.47425E-02 22624   0.976E-01    0.155E+00
DAV: 106    -0.498155291348E+03   -0.81142E-01   -0.27074E-02 21920   0.639E-01    0.132E+00
DAV: 107    -0.498106138134E+03    0.49153E-01   -0.12950E-01 26152   0.194E+00    0.174E+00
DAV: 108    -0.498176733231E+03   -0.70595E-01   -0.57817E-02 26312   0.129E+00    0.143E+00
DAV: 109    -0.498222694858E+03   -0.45962E-01   -0.19635E-02 24432   0.583E-01    0.164E+00
DAV: 110    -0.498233888086E+03   -0.11193E-01   -0.36395E-03 18776   0.165E-01    0.192E+00
DAV: 111    -0.498283864653E+03   -0.49977E-01   -0.14151E-02 26112   0.509E-01    0.242E+00
DAV: 112    -0.498309443375E+03   -0.25579E-01   -0.78545E-03 24936   0.402E-01    0.279E+00
DAV: 113    -0.498312695008E+03   -0.32516E-02   -0.41230E-03 25432   0.361E-01    0.286E+00
DAV: 114    -0.498334400107E+03   -0.21705E-01   -0.47032E-03 26392   0.327E-01    0.330E+00
DAV: 115    -0.498355935956E+03   -0.21536E-01   -0.34966E-03 25304   0.217E-01    0.371E+00
DAV: 116    -0.498353596634E+03    0.23393E-02   -0.13648E-03 16216   0.149E-01    0.365E+00
DAV: 117    -0.498333258810E+03    0.20338E-01   -0.16285E-02 25888   0.636E-01    0.334E+00
DAV: 118    -0.498349966750E+03   -0.16708E-01   -0.88147E-03 25768   0.504E-01    0.367E+00
DAV: 119    -0.498344134629E+03    0.58321E-02   -0.11457E-03 22160   0.152E-01    0.358E+00
DAV: 120    -0.498338750263E+03    0.53844E-02   -0.36021E-04 25328   0.934E-02    0.347E+00
DAV: 121    -0.498332201212E+03    0.65491E-02   -0.13564E-03 26640   0.185E-01    0.325E+00
DAV: 122    -0.498316356367E+03    0.15845E-01   -0.30049E-02 26584   0.873E-01    0.250E+00
DAV: 123    -0.498298964672E+03    0.17392E-01   -0.90836E-03 25032   0.411E-01    0.198E+00
DAV: 124    -0.498285940713E+03    0.13024E-01   -0.80527E-03 26376   0.371E-01    0.135E+00
DAV: 125    -0.498282995858E+03    0.29449E-02   -0.61637E-03 25424   0.308E-01    0.894E-01
DAV: 126    -0.498281526596E+03    0.14693E-02   -0.51774E-03 25520   0.300E-01    0.456E-01
DAV: 127    -0.498278210352E+03    0.33162E-02   -0.54755E-03 25992   0.334E-01    0.343E-01
DAV: 128    -0.498279870882E+03   -0.16605E-02   -0.25044E-03 23000   0.253E-01    0.261E-01
DAV: 129    -0.498283418974E+03   -0.35481E-02   -0.20742E-03 26016   0.198E-01    0.478E-01
DAV: 130    -0.498286562138E+03   -0.31432E-02   -0.11385E-03 21960   0.131E-01    0.591E-01
DAV: 131    -0.498289364434E+03   -0.28023E-02   -0.85546E-04 21944   0.136E-01    0.672E-01
DAV: 132    -0.498290235327E+03   -0.87089E-03   -0.66355E-04 24424   0.150E-01    0.709E-01
DAV: 133    -0.498290339745E+03   -0.10442E-03   -0.60023E-04 23496   0.132E-01    0.661E-01
DAV: 134    -0.498289734996E+03    0.60475E-03   -0.53392E-04 22152   0.969E-02    0.586E-01
DAV: 135    -0.498288275019E+03    0.14600E-02   -0.64471E-04 25936   0.118E-01    0.412E-01
DAV: 136    -0.498287343060E+03    0.93196E-03   -0.53968E-04 26120   0.948E-02    0.265E-01
DAV: 137    -0.498287438392E+03   -0.95332E-04   -0.31018E-04 22080   0.890E-02    0.264E-01
DAV: 138    -0.498287083664E+03    0.35473E-03   -0.25653E-04 23952   0.890E-02    0.185E-01
DAV: 139    -0.498286927684E+03    0.15598E-03   -0.57669E-04 24744   0.108E-01    0.606E-02
DAV: 140    -0.498287170996E+03   -0.24331E-03   -0.26274E-04 21352   0.548E-02    0.108E-01
DAV: 141    -0.498287333348E+03   -0.16235E-03   -0.28585E-04 19336   0.994E-02    0.689E-02
DAV: 142    -0.498287426256E+03   -0.92908E-04   -0.89299E-05 23368   0.483E-02    0.731E-02
DAV: 143    -0.498287514167E+03   -0.87911E-04   -0.71074E-05 25360   0.480E-02    0.844E-02
DAV: 144    -0.498287644121E+03   -0.12995E-03   -0.10203E-04 24832   0.474E-02    0.598E-02
DAV: 145    -0.498287936615E+03   -0.29249E-03   -0.79905E-05 23624   0.467E-02    0.768E-02
DAV: 146    -0.498288059538E+03   -0.12292E-03   -0.37972E-05 20976   0.283E-02    0.848E-02
DAV: 147    -0.498288252694E+03   -0.19316E-03   -0.11454E-04 26384   0.576E-02    0.137E-01
DAV: 148    -0.498288347405E+03   -0.94710E-04   -0.74033E-05 26360   0.517E-02    0.124E-01
DAV: 149    -0.498297811470E+03   -0.94641E-02   -0.16384E-02 27256   0.574E-01    0.117E+00
DAV: 150    -0.498308813599E+03   -0.11002E-01   -0.51560E-03 27416   0.296E-01
 -----------------------------------------------------------------------------
|                                                                             |
|           W    W    AA    RRRRR   N    N  II  N    N   GGGG   !!!           |
|           W    W   A  A   R    R  NN   N  II  NN   N  G    G  !!!           |
|           W    W  A    A  R    R  N N  N  II  N N  N  G       !!!           |
|           W WW W  AAAAAA  RRRRR   N  N N  II  N  N N  G  GGG   !            |
|           WW  WW  A    A  R   R   N   NN  II  N   NN  G    G                |
|           W    W  A    A  R    R  N    N  II  N    N   GGGG   !!!           |
|                                                                             |
|     The electronic self-consistency was not achieved in the given           |
|     number of steps (NELM). The forces and other quantities evaluated       |
|     might not be reliable so examine the results carefully. If you find     |
|     spurious results, we suggest increasing NELM, if you were close to      |
|     convergence or switching to a different ALGO or adjusting the           |
|     density mixing parameters otherwise.                                    |
|                                                                             |
 -----------------------------------------------------------------------------

   3 F= -.49830881E+03 E0= -.49830984E+03  d E =0.306756E+01  mag=    76.0439
 curvature:  -0.20 expect dE=-0.285E-01 dE for cont linesearch -0.230E-04
 trial: gam= 0.22857 g(F)=  0.140E+00 g(S)=  0.000E+00 ort =-0.861E-02 (trialstep = 0.881E+00)
 search vector abs. value=  0.171E+00
 bond charge predicted
       N       E                     dE             d eps       ncg     rms          rms(c)
DAV:   1    -0.498064311852E+03    0.23350E+00   -0.30777E+01 15224   0.138E+01    0.405E+00
DAV:   2    -0.500521982398E+03   -0.24577E+01   -0.73091E+00 24000   0.141E+01    0.212E+01
DAV:   3    -0.498477177609E+03    0.20448E+01   -0.49391E+00 22264   0.134E+01    0.691E+00
DAV:   4    -0.498684758581E+03   -0.20758E+00   -0.19934E+00 25816   0.645E+00    0.957E+00
DAV:   5    -0.498532847871E+03    0.15191E+00   -0.98021E-01 24912   0.464E+00    0.720E+00
DAV:   6    -0.498383243548E+03    0.14960E+00   -0.35362E-01 24992   0.309E+00    0.199E+00
DAV:   7    -0.498388586507E+03   -0.53430E-02   -0.75827E-02 25608   0.138E+00    0.194E+00
DAV:   8    -0.498382963309E+03    0.56232E-02   -0.32906E-02 24688   0.102E+00    0.125E+00
DAV:   9    -0.498383438752E+03   -0.47544E-03   -0.21762E-02 25936   0.842E-01    0.108E+00
DAV:  10    -0.498386058133E+03   -0.26194E-02   -0.23084E-02 25776   0.870E-01    0.123E+00
DAV:  11    -0.498383418165E+03    0.26400E-02   -0.21223E-02 26096   0.849E-01    0.825E-01
DAV:  12    -0.498383680389E+03   -0.26222E-03   -0.12011E-02 26760   0.612E-01    0.749E-01
DAV:  13    -0.498383919118E+03   -0.23873E-03   -0.54477E-03 25944   0.443E-01    0.714E-01
DAV:  14    -0.498383764346E+03    0.15477E-03   -0.16548E-03 24832   0.235E-01    0.639E-01
DAV:  15    -0.498383730494E+03    0.33852E-04   -0.26776E-04 22304   0.579E-02    0.645E-01
DAV:  16    -0.498383390293E+03    0.34020E-03   -0.69273E-04 25560   0.150E-01    0.596E-01
DAV:  17    -0.498383893511E+03   -0.50322E-03   -0.24860E-03 26032   0.263E-01    0.661E-01
DAV:  18    -0.498384086997E+03   -0.19349E-03   -0.43302E-03 26048   0.362E-01    0.571E-01
DAV:  19    -0.498384033917E+03    0.53080E-04   -0.42754E-03 26472   0.336E-01    0.459E-01
DAV:  20    -0.498384606497E+03   -0.57258E-03   -0.37686E-03 26256   0.324E-01    0.407E-01
DAV:  21    -0.498384879277E+03   -0.27278E-03   -0.27995E-03 26232   0.291E-01    0.387E-01
DAV:  22    -0.498384986781E+03   -0.10750E-03   -0.21684E-03 26200   0.269E-01    0.311E-01
DAV:  23    -0.498384639197E+03    0.34758E-03   -0.16641E-03 26536   0.227E-01    0.160E-01
DAV:  24    -0.498384781817E+03   -0.14262E-03   -0.89822E-04 26312   0.171E-01    0.200E-01
DAV:  25    -0.498384708477E+03    0.73339E-04   -0.50622E-04 25800   0.140E-01    0.113E-01
DAV:  26    -0.498384698856E+03    0.96216E-05   -0.19507E-04 25832   0.779E-02    0.109E-01
DAV:  27    -0.498384632274E+03    0.66582E-04   -0.13641E-04 25280   0.699E-02    0.955E-02
DAV:  28    -0.498384611666E+03    0.20607E-04   -0.87340E-05 25832   0.540E-02    0.811E-02
DAV:  29    -0.498384674681E+03   -0.63015E-04   -0.63858E-05 25032   0.444E-02    0.795E-02
DAV:  30    -0.498384730412E+03   -0.55731E-04   -0.43099E-05 25376   0.396E-02    0.653E-02
DAV:  31    -0.498384888376E+03   -0.15796E-03   -0.43055E-05 24632   0.334E-02    0.490E-02
DAV:  32    -0.498385035835E+03   -0.14746E-03   -0.30637E-05 23720   0.313E-02    0.346E-02
DAV:  33    -0.498385198324E+03   -0.16249E-03   -0.20995E-05 21760   0.240E-02    0.332E-02
DAV:  34    -0.498385399273E+03   -0.20095E-03   -0.23013E-05 21296   0.289E-02    0.313E-02
DAV:  35    -0.498386651713E+03   -0.12524E-02   -0.19556E-03 24136   0.201E-01    0.384E-01
DAV:  36    -0.498385813265E+03    0.83845E-03   -0.62557E-04 26088   0.118E-01    0.184E-01
DAV:  37    -0.498387086184E+03   -0.12729E-02   -0.82745E-04 26640   0.136E-01    0.415E-01
DAV:  38    -0.498387877658E+03   -0.79147E-03   -0.23394E-04 25960   0.585E-02    0.522E-01
DAV:  39    -0.498388232557E+03   -0.35490E-03   -0.71341E-05 19440   0.267E-02    0.568E-01
DAV:  40    -0.498388465182E+03   -0.23263E-03   -0.24399E-05 17632   0.127E-02    0.598E-01
DAV:  41    -0.498388594727E+03   -0.12954E-03   -0.11077E-05 16240   0.704E-03    0.611E-01
DAV:  42    -0.498388610624E+03   -0.15897E-04   -0.15075E-06 11328   0.370E-03    0.614E-01
DAV:  43    -0.498388573157E+03    0.37467E-04   -0.61662E-07  8936   0.480E-03    0.608E-01
DAV:  44    -0.498388502348E+03    0.70809E-04   -0.14726E-06  9096   0.624E-03    0.598E-01
DAV:  45    -0.498388253860E+03    0.24849E-03   -0.17200E-05 13288   0.209E-02    0.564E-01
DAV:  46    -0.498387868278E+03    0.38558E-03   -0.59311E-05 18336   0.320E-02    0.506E-01
DAV:  47    -0.498387559907E+03    0.30837E-03   -0.56576E-05 22736   0.280E-02    0.453E-01
DAV:  48    -0.498387373835E+03    0.18607E-03   -0.25419E-05 17816   0.196E-02    0.417E-01
DAV:  49    -0.498387172661E+03    0.20117E-03   -0.23337E-05 14776   0.195E-02    0.378E-01
DAV:  50    -0.498386933568E+03    0.23909E-03   -0.54899E-05 18000   0.267E-02    0.321E-01
DAV:  51    -0.498386717113E+03    0.21646E-03   -0.73030E-05 22936   0.276E-02    0.262E-01
DAV:  52    -0.498386503912E+03    0.21320E-03   -0.90646E-05 21472   0.340E-02    0.189E-01
DAV:  53    -0.498386394084E+03    0.10983E-03   -0.69259E-05 20736   0.258E-02    0.136E-01
DAV:  54    -0.498386363889E+03    0.30195E-04   -0.35575E-05 16120   0.170E-02    0.113E-01
DAV:  55    -0.498386350925E+03    0.12965E-04   -0.79870E-06 17408   0.779E-03    0.104E-01
DAV:  56    -0.498386332271E+03    0.18653E-04   -0.25504E-06 11168   0.639E-03    0.897E-02
DAV:  57    -0.498386299077E+03    0.33194E-04   -0.28249E-05 11320   0.237E-02    0.465E-02
DAV:  58    -0.498386284399E+03    0.14678E-04   -0.62113E-05 17032   0.310E-02    0.167E-02
DAV:  59    -0.498386311212E+03   -0.26813E-04   -0.52375E-05 22832   0.218E-02    0.582E-02
DAV:  60    -0.498386335887E+03   -0.24675E-04   -0.15548E-05 18008   0.120E-02    0.775E-02
DAV:  61    -0.498386357074E+03   -0.21188E-04   -0.51536E-06 13992   0.738E-03    0.910E-02
DAV:  62    -0.498386391036E+03   -0.33962E-04   -0.76512E-06 10144   0.121E-02    0.116E-01
DAV:  63    -0.498386386476E+03    0.45604E-05   -0.42407E-06 14032   0.940E-03    0.108E-01
DAV:  64    -0.498386419742E+03   -0.33266E-04   -0.46642E-06  9464   0.114E-02    0.127E-01
DAV:  65    -0.498386440492E+03   -0.20750E-04   -0.34405E-06 13696   0.562E-03    0.137E-01
DAV:  66    -0.498386463311E+03   -0.22819E-04   -0.32384E-06 11440   0.492E-03    0.147E-01
DAV:  67    -0.498386464146E+03   -0.83495E-06   -0.15232E-06  9136   0.490E-03
   4 F= -.49838646E+03 E0= -.49838690E+03  d E =-.776505E-01  mag=    76.1663
 trial-energy change:   -0.077651  1 .order   -0.095769   -0.122035   -0.069502
 step:   2.0466(harm=  2.0466)  dis= 0.06496  next Energy=  -498.450559 (dE=-0.142E+00)
 bond charge predicted
       N       E                     dE             d eps       ncg     rms          rms(c)
DAV:   1    -0.497807967862E+03    0.57850E+00   -0.54187E+01 15194   0.184E+01    0.459E+00
DAV:   2    -0.498675655729E+03   -0.86769E+00   -0.55515E+00 22544   0.806E+00    0.793E+00
DAV:   3    -0.498758224738E+03   -0.82569E-01   -0.24345E+00 25064   0.101E+01    0.844E+00
DAV:   4    -0.498556717290E+03    0.20151E+00   -0.13702E+00 24272   0.647E+00    0.567E+00
DAV:   5    -0.498444173739E+03    0.11254E+00   -0.35445E-01 25384   0.325E+00    0.248E+00
DAV:   6    -0.498436974268E+03    0.71995E-02   -0.88378E-02 24840   0.146E+00    0.195E+00
DAV:   7    -0.498430238776E+03    0.67355E-02   -0.43423E-02 24504   0.112E+00    0.143E+00
DAV:   8    -0.498427845166E+03    0.23936E-02   -0.32140E-02 25792   0.108E+00    0.104E+00
DAV:   9    -0.498434885878E+03   -0.70407E-02   -0.32238E-02 26320   0.103E+00    0.149E+00
DAV:  10    -0.498427420075E+03    0.74658E-02   -0.28662E-02 26144   0.104E+00    0.821E-01
DAV:  11    -0.498428683656E+03   -0.12636E-02   -0.18905E-02 26064   0.760E-01    0.861E-01
DAV:  12    -0.498427699344E+03    0.98431E-03   -0.11668E-02 25352   0.613E-01    0.591E-01
DAV:  13    -0.498426614996E+03    0.10843E-02   -0.57222E-03 26080   0.461E-01    0.274E-01
DAV:  14    -0.498426842253E+03   -0.22726E-03   -0.24233E-03 26312   0.272E-01    0.260E-01
DAV:  15    -0.498426884124E+03   -0.41871E-04   -0.11702E-03 25416   0.209E-01    0.161E-01
DAV:  16    -0.498426959709E+03   -0.75585E-04   -0.50691E-04 25328   0.131E-01    0.114E-01
DAV:  17    -0.498427146897E+03   -0.18719E-03   -0.31742E-04 25824   0.104E-01    0.120E-01
DAV:  18    -0.498427276707E+03   -0.12981E-03   -0.19224E-04 25632   0.832E-02    0.666E-02
DAV:  19    -0.498427342176E+03   -0.65469E-04   -0.87938E-05 25384   0.525E-02    0.514E-02
DAV:  20    -0.498427469421E+03   -0.12725E-03   -0.51183E-05 25736   0.392E-02    0.509E-02
DAV:  21    -0.498427537726E+03   -0.68305E-04   -0.19991E-05 23896   0.256E-02    0.380E-02
DAV:  22    -0.498427527900E+03    0.98257E-05   -0.20265E-06 11288   0.518E-03    0.393E-02
DAV:  23    -0.498427460755E+03    0.67146E-04   -0.54005E-06 15128   0.134E-02    0.365E-02
DAV:  24    -0.498427420185E+03    0.40569E-04   -0.85553E-06 18320   0.169E-02    0.367E-02
DAV:  25    -0.498427351639E+03    0.68547E-04   -0.23475E-05 24080   0.239E-02    0.342E-02
DAV:  26    -0.498427318636E+03    0.33002E-04   -0.33344E-05 25272   0.308E-02    0.350E-02
DAV:  27    -0.498427368584E+03   -0.49948E-04   -0.44653E-05 25880   0.349E-02    0.391E-02
DAV:  28    -0.498427414166E+03   -0.45581E-04   -0.28191E-05 25216   0.292E-02    0.186E-02
DAV:  29    -0.498427528350E+03   -0.11418E-03   -0.15333E-05 22480   0.217E-02    0.257E-02
DAV:  30    -0.498427619845E+03   -0.91495E-04   -0.94832E-06 19240   0.196E-02    0.122E-02
DAV:  31    -0.498427710997E+03   -0.91152E-04   -0.67101E-06 17112   0.131E-02    0.159E-02
DAV:  32    -0.498427813620E+03   -0.10262E-03   -0.60451E-06 15712   0.129E-02    0.910E-03
DAV:  33    -0.498427865475E+03   -0.51854E-04   -0.23512E-06 12888   0.852E-03    0.993E-03
DAV:  34    -0.498427947636E+03   -0.82161E-04   -0.41796E-06 14504   0.776E-03    0.824E-03
DAV:  35    -0.498427993998E+03   -0.46363E-04   -0.31897E-06 12504   0.936E-03    0.111E-02
DAV:  36    -0.498428018774E+03   -0.24776E-04   -0.26575E-06 11800   0.970E-03    0.759E-03
DAV:  37    -0.498428068776E+03   -0.50002E-04   -0.36839E-06 14168   0.693E-03    0.645E-03
DAV:  38    -0.498428107857E+03   -0.39082E-04   -0.22772E-06 12672   0.574E-03    0.654E-03
DAV:  39    -0.498428141404E+03   -0.33546E-04   -0.24930E-06 13088   0.562E-03    0.516E-03
DAV:  40    -0.498428176549E+03   -0.35146E-04   -0.34494E-06 13584   0.525E-03    0.799E-03
DAV:  41    -0.498428198331E+03   -0.21781E-04   -0.26935E-06 13136   0.535E-03    0.772E-03
DAV:  42    -0.498428204950E+03   -0.66196E-05   -0.86420E-07 11152   0.357E-03    0.666E-03
DAV:  43    -0.498428208904E+03   -0.39533E-05   -0.87891E-07 10168   0.396E-03    0.111E-02
DAV:  44    -0.498428210486E+03   -0.15825E-05   -0.67910E-07  9992   0.230E-03    0.100E-02
DAV:  45    -0.498428210989E+03   -0.50316E-06   -0.34684E-07  7744   0.190E-03
   5 F= -.49842821E+03 E0= -.49842848E+03  d E =-.119397E+00  mag=    76.2163
 curvature:  -1.26 expect dE=-0.655E-01 dE for cont linesearch -0.518E-03
 trial: gam= 0.22523 g(F)=  0.520E-01 g(S)=  0.000E+00 ort =-0.837E-02 (trialstep = 0.111E+01)
 search vector abs. value=  0.569E-01
 bond charge predicted
       N       E                     dE             d eps       ncg     rms          rms(c)
DAV:   1    -0.498217406018E+03    0.21080E+00   -0.19681E+01 15844   0.120E+01    0.257E+00
DAV:   2    -0.498561971506E+03   -0.34457E+00   -0.24092E+00 22360   0.518E+00    0.476E+00
DAV:   3    -0.498560313650E+03    0.16579E-02   -0.80882E-01 23480   0.638E+00    0.444E+00
DAV:   4    -0.498529344305E+03    0.30969E-01   -0.39927E-01 23808   0.354E+00    0.367E+00
DAV:   5    -0.498475121112E+03    0.54223E-01   -0.13457E-01 23928   0.211E+00    0.128E+00
DAV:   6    -0.498472162320E+03    0.29588E-02   -0.26663E-02 24480   0.760E-01    0.793E-01
DAV:   7    -0.498472000132E+03    0.16219E-03   -0.10892E-02 24240   0.546E-01    0.736E-01
DAV:   8    -0.498470580852E+03    0.14193E-02   -0.78901E-03 25152   0.507E-01    0.513E-01
DAV:   9    -0.498471926043E+03   -0.13452E-02   -0.92766E-03 26464   0.540E-01    0.795E-01
DAV:  10    -0.498470107981E+03    0.18181E-02   -0.10479E-02 26136   0.613E-01    0.652E-01
DAV:  11    -0.498468619338E+03    0.14886E-02   -0.59930E-03 26040   0.425E-01    0.355E-01
DAV:  12    -0.498468472576E+03    0.14676E-03   -0.30618E-03 25880   0.310E-01    0.332E-01
DAV:  13    -0.498467960139E+03    0.51244E-03   -0.16797E-03 25952   0.242E-01    0.189E-01
DAV:  14    -0.498467808123E+03    0.15202E-03   -0.68273E-04 26488   0.155E-01    0.995E-02
DAV:  15    -0.498467899759E+03   -0.91636E-04   -0.28612E-04 25256   0.102E-01    0.130E-01
DAV:  16    -0.498467900362E+03   -0.60321E-06   -0.17134E-04 24768   0.830E-02    0.600E-02
DAV:  17    -0.498467978383E+03   -0.78020E-04   -0.60681E-05 25656   0.419E-02    0.560E-02
DAV:  18    -0.498468108043E+03   -0.12966E-03   -0.30220E-05 24544   0.289E-02    0.545E-02
DAV:  19    -0.498468127971E+03   -0.19928E-04   -0.38184E-06 13448   0.101E-02    0.511E-02
DAV:  20    -0.498468023022E+03    0.10495E-03   -0.17178E-05 22224   0.210E-02    0.574E-02
DAV:  21    -0.498467899654E+03    0.12337E-03   -0.43525E-05 24952   0.368E-02    0.565E-02
DAV:  22    -0.498467829897E+03    0.69757E-04   -0.66169E-05 25952   0.428E-02    0.619E-02
DAV:  23    -0.498467816746E+03    0.13151E-04   -0.59843E-05 26008   0.431E-02    0.415E-02
DAV:  24    -0.498467958310E+03   -0.14156E-03   -0.52627E-05 26144   0.395E-02    0.497E-02
DAV:  25    -0.498468270019E+03   -0.31171E-03   -0.46842E-05 25528   0.364E-02    0.335E-02
DAV:  26    -0.498468473629E+03   -0.20361E-03   -0.25023E-05 24096   0.276E-02    0.269E-02
DAV:  27    -0.498469150675E+03   -0.67705E-03   -0.47562E-05 20614   0.255E-02    0.325E-02
DAV:  28    -0.498469456110E+03   -0.30543E-03   -0.23064E-05 21568   0.241E-02    0.195E-02
DAV:  29    -0.498469885822E+03   -0.42971E-03   -0.25295E-05 19984   0.174E-02    0.224E-02
DAV:  30    -0.498470189263E+03   -0.30344E-03   -0.17398E-05 19288   0.189E-02    0.161E-02
DAV:  31    -0.498470625378E+03   -0.43612E-03   -0.27683E-05 19320   0.169E-02    0.205E-02
DAV:  32    -0.498470964657E+03   -0.33928E-03   -0.22514E-05 18960   0.174E-02    0.121E-02
DAV:  33    -0.498471216932E+03   -0.25228E-03   -0.16909E-05 17792   0.132E-02    0.153E-02
DAV:  34    -0.498471398238E+03   -0.18131E-03   -0.13283E-05 16872   0.126E-02    0.840E-03
DAV:  35    -0.498471481780E+03   -0.83542E-04   -0.56453E-06 14520   0.867E-03    0.967E-03
DAV:  36    -0.498471542374E+03   -0.60594E-04   -0.62389E-06 15144   0.869E-03    0.618E-03
DAV:  37    -0.498471558464E+03   -0.16090E-04   -0.34293E-06 13144   0.621E-03    0.648E-03
DAV:  38    -0.498471531844E+03    0.26620E-04   -0.40551E-06 13712   0.650E-03    0.416E-03
DAV:  39    -0.498471519429E+03    0.12416E-04   -0.71399E-07 11344   0.438E-03    0.392E-03
DAV:  40    -0.498471505644E+03    0.13785E-04   -0.60458E-07  9496   0.372E-03    0.375E-03
DAV:  41    -0.498471503126E+03    0.25179E-05   -0.32626E-07  7904   0.270E-03    0.357E-03
DAV:  42    -0.498471502392E+03    0.73456E-06   -0.24211E-07  8000   0.216E-03
   6 F= -.49847150E+03 E0= -.49847180E+03  d E =-.432914E-01  mag=    76.3561
 trial-energy change:   -0.043291  1 .order   -0.043346   -0.055804   -0.030887
 step:   2.4952(harm=  2.4952)  dis= 0.04300  next Energy=  -498.490701 (dE=-0.625E-01)
 bond charge predicted
       N       E                     dE             d eps       ncg     rms          rms(c)
DAV:   1    -0.498098392875E+03    0.37311E+00   -0.30336E+01 15826   0.149E+01    0.324E+00
DAV:   2    -0.498636601329E+03   -0.53821E+00   -0.37458E+00 22568   0.654E+00    0.608E+00
DAV:   3    -0.498628887461E+03    0.77139E-02   -0.12864E+00 23544   0.802E+00    0.552E+00
DAV:   4    -0.498584959738E+03    0.43928E-01   -0.63797E-01 24016   0.446E+00    0.468E+00
DAV:   5    -0.498497572610E+03    0.87387E-01   -0.22059E-01 24008   0.268E+00    0.171E+00
DAV:   6    -0.498492456282E+03    0.51163E-02   -0.47855E-02 24432   0.102E+00    0.107E+00
DAV:   7    -0.498492026888E+03    0.42939E-03   -0.19249E-02 24328   0.728E-01    0.946E-01
DAV:   8    -0.498489701223E+03    0.23257E-02   -0.12616E-02 25000   0.647E-01    0.633E-01
DAV:   9    -0.498491926881E+03   -0.22257E-02   -0.14005E-02 26560   0.665E-01    0.977E-01
DAV:  10    -0.498489664888E+03    0.22620E-02   -0.15907E-02 25840   0.751E-01    0.832E-01
DAV:  11    -0.498487304254E+03    0.23606E-02   -0.95259E-03 26136   0.540E-01    0.443E-01
DAV:  12    -0.498487206954E+03    0.97300E-04   -0.50492E-03 25936   0.396E-01    0.427E-01
DAV:  13    -0.498486453699E+03    0.75326E-03   -0.28032E-03 25976   0.318E-01    0.251E-01
DAV:  14    -0.498486198955E+03    0.25474E-03   -0.11602E-03 26424   0.200E-01    0.126E-01
DAV:  15    -0.498486353837E+03   -0.15488E-03   -0.48886E-04 25304   0.132E-01    0.174E-01
DAV:  16    -0.498486325772E+03    0.28065E-04   -0.30579E-04 24992   0.110E-01    0.739E-02
DAV:  17    -0.498486428140E+03   -0.10237E-03   -0.11305E-04 25896   0.572E-02    0.707E-02
DAV:  18    -0.498486602741E+03   -0.17460E-03   -0.59979E-05 25376   0.416E-02    0.666E-02
DAV:  19    -0.498486636957E+03   -0.34216E-04   -0.11409E-05 20400   0.180E-02    0.597E-02
DAV:  20    -0.498486534000E+03    0.10296E-03   -0.17752E-05 22712   0.209E-02    0.656E-02
DAV:  21    -0.498486379698E+03    0.15430E-03   -0.57730E-05 25720   0.424E-02    0.652E-02
DAV:  22    -0.498486297821E+03    0.81877E-04   -0.10244E-04 26336   0.532E-02    0.769E-02
DAV:  23    -0.498486257934E+03    0.39888E-04   -0.10706E-04 26456   0.564E-02    0.492E-02
DAV:  24    -0.498486376617E+03   -0.11868E-03   -0.70670E-05 26184   0.456E-02    0.499E-02
DAV:  25    -0.498486740939E+03   -0.36432E-03   -0.59495E-05 25328   0.399E-02    0.405E-02
DAV:  26    -0.498486961123E+03   -0.22018E-03   -0.32633E-05 24952   0.327E-02    0.265E-02
DAV:  27    -0.498487575177E+03   -0.61405E-03   -0.43459E-05 21176   0.272E-02    0.334E-02
DAV:  28    -0.498487895437E+03   -0.32026E-03   -0.23209E-05 21456   0.253E-02    0.184E-02
DAV:  29    -0.498488288490E+03   -0.39305E-03   -0.21368E-05 19888   0.186E-02    0.241E-02
DAV:  30    -0.498488660296E+03   -0.37181E-03   -0.18613E-05 18736   0.190E-02    0.153E-02
DAV:  31    -0.498489036353E+03   -0.37606E-03   -0.17803E-05 19264   0.155E-02    0.195E-02
DAV:  32    -0.498489523248E+03   -0.48689E-03   -0.25666E-05 19262   0.161E-02    0.129E-02
DAV:  33    -0.498489818519E+03   -0.29527E-03   -0.14447E-05 17464   0.134E-02    0.150E-02
DAV:  34    -0.498490149510E+03   -0.33099E-03   -0.19312E-05 18390   0.131E-02    0.944E-03
DAV:  35    -0.498490286280E+03   -0.13677E-03   -0.61749E-06 14776   0.940E-03    0.995E-03
DAV:  36    -0.498490437471E+03   -0.15119E-03   -0.10003E-05 16358   0.934E-03    0.702E-03
DAV:  37    -0.498490486185E+03   -0.48714E-04   -0.28768E-06 13352   0.695E-03    0.657E-03
DAV:  38    -0.498490525910E+03   -0.39725E-04   -0.78669E-06 15156   0.687E-03    0.511E-03
DAV:  39    -0.498490517622E+03    0.82877E-05   -0.11956E-06 11800   0.525E-03    0.453E-03
DAV:  40    -0.498490491020E+03    0.26602E-04   -0.17723E-06 12014   0.396E-03    0.495E-03
DAV:  41    -0.498490481595E+03    0.94251E-05   -0.47248E-07  9024   0.353E-03    0.460E-03
DAV:  42    -0.498490475822E+03    0.57727E-05   -0.32515E-07  8664   0.225E-03    0.435E-03
DAV:  43    -0.498490474621E+03    0.12009E-05   -0.21965E-07  7690   0.217E-03    0.416E-03
DAV:  44    -0.498490476050E+03   -0.14288E-05   -0.19717E-07  9112   0.182E-03    0.395E-03
DAV:  45    -0.498490478713E+03   -0.26625E-05   -0.15391E-07  7978   0.157E-03    0.383E-03
DAV:  46    -0.498490485156E+03   -0.64433E-05   -0.23590E-07  9936   0.155E-03    0.338E-03
DAV:  47    -0.498490516086E+03   -0.30930E-04   -0.12588E-06 11084   0.285E-03    0.304E-03
DAV:  48    -0.498490513971E+03    0.21146E-05   -0.32021E-07  8760   0.313E-03    0.243E-03
DAV:  49    -0.498490515126E+03   -0.11546E-05   -0.17681E-07  7574   0.197E-03    0.207E-03
DAV:  50    -0.498490517951E+03   -0.28254E-05   -0.13057E-07  7536   0.132E-03    0.189E-03
DAV:  51    -0.498490522956E+03   -0.50051E-05   -0.16491E-07  9638   0.867E-04    0.159E-03
DAV:  52    -0.498490531543E+03   -0.85870E-05   -0.36377E-07 10420   0.972E-04    0.111E-03
DAV:  53    -0.498490531073E+03    0.47030E-06   -0.83061E-08  7468   0.909E-04
   7 F= -.49849053E+03 E0= -.49849107E+03  d E =-.623201E-01  mag=    76.4820
 curvature:  -1.42 expect dE=-0.168E-01 dE for cont linesearch -0.158E-05
 trial: gam= 0.19387 g(F)=  0.119E-01 g(S)=  0.000E+00 ort =-0.252E-03 (trialstep = 0.139E+01)
 search vector abs. value=  0.139E-01
 bond charge predicted
       N       E                     dE             d eps       ncg     rms          rms(c)
DAV:   1    -0.498401246228E+03    0.89285E-01   -0.79548E+00 16496   0.768E+00    0.158E+00
DAV:   2    -0.498514917973E+03   -0.11367E+00   -0.89428E-01 18776   0.229E+00    0.196E+00
DAV:   3    -0.498550256395E+03   -0.35338E-01   -0.25843E-01 25992   0.295E+00    0.297E+00
DAV:   4    -0.498505739668E+03    0.44517E-01   -0.13004E-01 26528   0.212E+00    0.797E-01
DAV:   5    -0.498504041293E+03    0.16984E-02   -0.17246E-02 26504   0.653E-01    0.454E-01
DAV:   6    -0.498503717246E+03    0.32405E-03   -0.32106E-03 24224   0.293E-01    0.381E-01
DAV:   7    -0.498503529603E+03    0.18764E-03   -0.16962E-03 24792   0.229E-01    0.319E-01
DAV:   8    -0.498504063926E+03   -0.53432E-03   -0.28313E-03 25960   0.273E-01    0.454E-01
DAV:   9    -0.498504643466E+03   -0.57954E-03   -0.50586E-03 26424   0.370E-01    0.605E-01
DAV:  10    -0.498503424121E+03    0.12193E-02   -0.37331E-03 26176   0.320E-01    0.223E-01
DAV:  11    -0.498503467253E+03   -0.43132E-04   -0.14976E-03 26464   0.200E-01    0.198E-01
DAV:  12    -0.498503412158E+03    0.55095E-04   -0.82343E-04 25888   0.170E-01    0.158E-01
DAV:  13    -0.498503326617E+03    0.85540E-04   -0.37663E-04 25920   0.102E-01    0.548E-02
DAV:  14    -0.498503335937E+03   -0.93199E-05   -0.11673E-04 25632   0.589E-02    0.530E-02
DAV:  15    -0.498503343844E+03   -0.79067E-05   -0.60688E-05 25184   0.457E-02    0.425E-02
DAV:  16    -0.498503340378E+03    0.34665E-05   -0.31643E-05 25328   0.314E-02    0.218E-02
DAV:  17    -0.498503344518E+03   -0.41407E-05   -0.20625E-05 24040   0.263E-02    0.343E-02
DAV:  18    -0.498503334113E+03    0.10405E-04   -0.14499E-05 21608   0.239E-02    0.166E-02
DAV:  19    -0.498503331455E+03    0.26578E-05   -0.37076E-06 13648   0.126E-02    0.125E-02
DAV:  20    -0.498503329171E+03    0.22843E-05   -0.28839E-06 10536   0.879E-03    0.120E-02
DAV:  21    -0.498503328139E+03    0.10313E-05   -0.12593E-06  8000   0.754E-03    0.632E-03
DAV:  22    -0.498503327716E+03    0.42298E-06   -0.60106E-07  7856   0.357E-03
   8 F= -.49850333E+03 E0= -.49850390E+03  d E =-.127966E-01  mag=    76.4747
 trial-energy change:   -0.012797  1 .order   -0.012811   -0.016451   -0.009171
 step:   3.1420(harm=  3.1420)  dis= 0.02926  next Energy=  -498.509119 (dE=-0.186E-01)
 bond charge predicted
       N       E                     dE             d eps       ncg     rms          rms(c)
DAV:   1    -0.498346564334E+03    0.15676E+00   -0.12619E+01 16456   0.968E+00    0.200E+00
DAV:   2    -0.498527404029E+03   -0.18084E+00   -0.14257E+00 18776   0.291E+00    0.247E+00
DAV:   3    -0.498583947738E+03   -0.56544E-01   -0.41545E-01 26008   0.372E+00    0.374E+00
DAV:   4    -0.498513358982E+03    0.70589E-01   -0.20979E-01 26480   0.269E+00    0.105E+00
DAV:   5    -0.498510881699E+03    0.24773E-02   -0.29462E-02 26368   0.872E-01    0.715E-01
DAV:   6    -0.498510665335E+03    0.21636E-03   -0.77514E-03 24568   0.439E-01    0.665E-01
DAV:   7    -0.498509475107E+03    0.11902E-02   -0.43833E-03 25584   0.345E-01    0.388E-01
DAV:   8    -0.498509761678E+03   -0.28657E-03   -0.35979E-03 26336   0.306E-01    0.461E-01
DAV:   9    -0.498510535463E+03   -0.77378E-03   -0.54673E-03 25784   0.417E-01    0.665E-01
DAV:  10    -0.498509328494E+03    0.12070E-02   -0.50090E-03 25768   0.390E-01    0.269E-01
DAV:  11    -0.498509408159E+03   -0.79665E-04   -0.24147E-03 26440   0.254E-01    0.254E-01
DAV:  12    -0.498509312241E+03    0.95918E-04   -0.13862E-03 25992   0.222E-01    0.199E-01
DAV:  13    -0.498509158806E+03    0.15344E-03   -0.61895E-04 26032   0.133E-01    0.742E-02
DAV:  14    -0.498509159117E+03   -0.31076E-06   -0.18033E-04 25464   0.736E-02    0.691E-02
DAV:  15    -0.498509129303E+03    0.29814E-04   -0.88081E-05 24688   0.554E-02    0.574E-02
DAV:  16    -0.498509113327E+03    0.15976E-04   -0.31958E-05 25080   0.305E-02    0.364E-02
DAV:  17    -0.498509103861E+03    0.94656E-05   -0.62431E-06 16920   0.134E-02    0.379E-02
DAV:  18    -0.498509104169E+03   -0.30786E-06   -0.14833E-06  8792   0.334E-03
   9 F= -.49850910E+03 E0= -.49850975E+03  d E =-.185731E-01  mag=    76.4591
 curvature:  -1.85 expect dE=-0.465E-02 dE for cont linesearch -0.229E-08
 trial: gam= 0.21777 g(F)=  0.251E-02 g(S)=  0.000E+00 ort = 0.416E-05 (trialstep = 0.174E+01)
 search vector abs. value=  0.318E-02
 bond charge predicted
       N       E                     dE             d eps       ncg     rms          rms(c)
DAV:   1    -0.498462578131E+03    0.46526E-01   -0.33198E+00 17792   0.535E+00    0.104E+00
DAV:   2    -0.498514799803E+03   -0.52222E-01   -0.44707E-01 17622   0.146E+00    0.102E+00
DAV:   3    -0.498534525323E+03   -0.19726E-01   -0.98899E-02 26016   0.199E+00    0.216E+00
DAV:   4    -0.498517553773E+03    0.16972E-01   -0.61290E-02 26528   0.146E+00    0.122E+00
DAV:   5    -0.498512658870E+03    0.48949E-02   -0.13871E-02 26032   0.589E-01    0.369E-01
DAV:   6    -0.498512409305E+03    0.24957E-03   -0.20234E-03 25088   0.224E-01    0.256E-01
DAV:   7    -0.498512257660E+03    0.15164E-03   -0.68153E-04 23600   0.156E-01    0.212E-01
DAV:   8    -0.498512301312E+03   -0.43652E-04   -0.71256E-04 25368   0.151E-01    0.280E-01
DAV:   9    -0.498512200615E+03    0.10070E-03   -0.11608E-03 25608   0.190E-01    0.260E-01
DAV:  10    -0.498511871485E+03    0.32913E-03   -0.10434E-03 26336   0.175E-01    0.147E-01
DAV:  11    -0.498511795814E+03    0.75671E-04   -0.36913E-04 26528   0.996E-02    0.135E-01
DAV:  12    -0.498511743170E+03    0.52644E-04   -0.99822E-05 24760   0.535E-02    0.123E-01
DAV:  13    -0.498511749077E+03   -0.59071E-05   -0.13141E-05 17464   0.100E-02    0.126E-01
DAV:  14    -0.498511780886E+03   -0.31809E-04   -0.72332E-05 24616   0.415E-02    0.133E-01
DAV:  15    -0.498511786277E+03   -0.53910E-05   -0.45851E-05 25448   0.391E-02    0.123E-01
DAV:  16    -0.498511855752E+03   -0.69475E-04   -0.15162E-04 26456   0.637E-02    0.136E-01
DAV:  17    -0.498511901196E+03   -0.45444E-04   -0.40927E-04 26336   0.103E-01    0.116E-01
DAV:  18    -0.498512008150E+03   -0.10695E-03   -0.46245E-04 26280   0.112E-01    0.153E-01
DAV:  19    -0.498511959823E+03    0.48328E-04   -0.43023E-04 25968   0.106E-01    0.106E-01
DAV:  20    -0.498511963154E+03   -0.33312E-05   -0.20833E-04 26280   0.798E-02    0.101E-01
DAV:  21    -0.498511942410E+03    0.20744E-04   -0.17067E-04 25832   0.750E-02    0.965E-02
DAV:  22    -0.498511906500E+03    0.35910E-04   -0.99833E-05 26104   0.601E-02    0.502E-02
DAV:  23    -0.498511921321E+03   -0.14822E-04   -0.61040E-05 25968   0.441E-02    0.598E-02
DAV:  24    -0.498511926083E+03   -0.47611E-05   -0.47180E-05 25464   0.397E-02    0.285E-02
DAV:  25    -0.498511943766E+03   -0.17683E-04   -0.18241E-05 23168   0.226E-02    0.185E-02
DAV:  26    -0.498511990816E+03   -0.47050E-04   -0.11313E-05 20712   0.191E-02    0.185E-02
DAV:  27    -0.498512023879E+03   -0.33064E-04   -0.51315E-06 16024   0.148E-02    0.103E-02
DAV:  28    -0.498512054788E+03   -0.30909E-04   -0.18092E-06  9624   0.923E-03    0.108E-02
DAV:  29    -0.498512119673E+03   -0.64885E-04   -0.25964E-06 12200   0.894E-03    0.811E-03
DAV:  30    -0.498512147522E+03   -0.27849E-04   -0.84549E-07  8568   0.596E-03    0.627E-03
DAV:  31    -0.498512215223E+03   -0.67700E-04   -0.21049E-06 12560   0.477E-03    0.617E-03
DAV:  32    -0.498512246037E+03   -0.30815E-04   -0.60931E-07  8504   0.442E-03    0.494E-03
DAV:  33    -0.498512300743E+03   -0.54705E-04   -0.16571E-06 11920   0.341E-03    0.465E-03
DAV:  34    -0.498512342435E+03   -0.41693E-04   -0.89691E-07  9984   0.383E-03    0.415E-03
DAV:  35    -0.498512405880E+03   -0.63445E-04   -0.24867E-06 13062   0.353E-03    0.377E-03
DAV:  36    -0.498512450234E+03   -0.44354E-04   -0.13251E-06 11646   0.373E-03    0.335E-03
DAV:  37    -0.498512509860E+03   -0.59626E-04   -0.36946E-06 13584   0.348E-03    0.306E-03
DAV:  38    -0.498512532648E+03   -0.22788E-04   -0.10283E-06 11552   0.326E-03    0.254E-03
DAV:  39    -0.498512552232E+03   -0.19584E-04   -0.25712E-06 12958   0.528E-03    0.855E-03
DAV:  40    -0.498512553295E+03   -0.10634E-05   -0.78950E-07  8848   0.182E-03    0.119E-02
DAV:  41    -0.498512553660E+03   -0.36442E-06   -0.32240E-07  8000   0.142E-03
  10 F= -.49851255E+03 E0= -.49851323E+03  d E =-.344949E-02  mag=    76.4675
 trial-energy change:   -0.003449  1 .order   -0.003356   -0.004377   -0.002335
 step:   3.0795(harm=  3.7310)  dis= 0.01471  next Energy=  -498.513494 (dE=-0.439E-02)
 bond charge predicted
       N       E                     dE             d eps       ncg     rms          rms(c)
DAV:   1    -0.498484218963E+03    0.28334E-01   -0.19658E+00 17816   0.410E+00    0.794E-01
DAV:   2    -0.498514973810E+03   -0.30755E-01   -0.26396E-01 17556   0.112E+00    0.753E-01
DAV:   3    -0.498525407114E+03   -0.10433E-01   -0.55867E-02 26160   0.151E+00    0.148E+00
DAV:   4    -0.498514212427E+03    0.11195E-01   -0.31261E-02 26544   0.106E+00    0.403E-01
DAV:   5    -0.498513864423E+03    0.34800E-03   -0.33704E-03 24688   0.277E-01    0.258E-01
DAV:   6    -0.498513804511E+03    0.59912E-04   -0.10098E-03 24760   0.161E-01    0.223E-01
DAV:   7    -0.498513708364E+03    0.96147E-04   -0.44954E-04 24664   0.119E-01    0.178E-01
DAV:   8    -0.498513703800E+03    0.45640E-05   -0.43174E-04 25808   0.115E-01    0.179E-01
DAV:   9    -0.498513728900E+03   -0.25099E-04   -0.74118E-04 26432   0.150E-01    0.190E-01
DAV:  10    -0.498513555160E+03    0.17374E-03   -0.78182E-04 26752   0.151E-01    0.112E-01
DAV:  11    -0.498513537646E+03    0.17514E-04   -0.34419E-04 26024   0.104E-01    0.110E-01
DAV:  12    -0.498513512247E+03    0.25399E-04   -0.20201E-04 26016   0.786E-02    0.827E-02
DAV:  13    -0.498513480534E+03    0.31713E-04   -0.94268E-05 25816   0.522E-02    0.311E-02
DAV:  14    -0.498513483909E+03   -0.33746E-05   -0.29782E-05 25144   0.299E-02    0.315E-02
DAV:  15    -0.498513483711E+03    0.19765E-06   -0.14118E-05 21584   0.239E-02    0.198E-02
DAV:  16    -0.498513486307E+03   -0.25960E-05   -0.42333E-06 14448   0.130E-02    0.122E-02
DAV:  17    -0.498513496743E+03   -0.10436E-04   -0.31301E-06 11728   0.985E-03    0.160E-02
DAV:  18    -0.498513504515E+03   -0.77727E-05   -0.15783E-06  9432   0.728E-03    0.117E-02
DAV:  19    -0.498513506391E+03   -0.18755E-05   -0.80516E-07  7912   0.251E-03    0.116E-02
DAV:  20    -0.498513501146E+03    0.52450E-05   -0.43421E-07  7760   0.232E-03    0.118E-02
DAV:  21    -0.498513497421E+03    0.37244E-05   -0.44293E-07  7672   0.482E-03    0.127E-02
DAV:  22    -0.498513480426E+03    0.16996E-04   -0.63567E-07  8560   0.533E-03    0.118E-02
DAV:  23    -0.498513466244E+03    0.14182E-04   -0.14076E-06  9344   0.703E-03    0.120E-02
DAV:  24    -0.498513431175E+03    0.35069E-04   -0.55169E-06 14880   0.106E-02    0.132E-02
DAV:  25    -0.498513427945E+03    0.32303E-05   -0.31158E-06 11232   0.101E-02    0.134E-02
DAV:  26    -0.498513446541E+03   -0.18596E-04   -0.14861E-06  9440   0.876E-03    0.923E-03
DAV:  27    -0.498513458155E+03   -0.11614E-04   -0.98948E-07  9176   0.613E-03    0.825E-03
DAV:  28    -0.498513480624E+03   -0.22470E-04   -0.13304E-06 11040   0.517E-03    0.771E-03
DAV:  29    -0.498513504753E+03   -0.24129E-04   -0.13311E-06 10064   0.535E-03    0.606E-03
DAV:  30    -0.498513527530E+03   -0.22776E-04   -0.10523E-06 10240   0.436E-03    0.499E-03
DAV:  31    -0.498513549553E+03   -0.22023E-04   -0.81886E-07  9784   0.364E-03    0.292E-03
DAV:  32    -0.498513572057E+03   -0.22504E-04   -0.71647E-07  9912   0.290E-03    0.333E-03
DAV:  33    -0.498513602287E+03   -0.30230E-04   -0.11397E-06 11364   0.262E-03    0.243E-03
DAV:  34    -0.498513630558E+03   -0.28271E-04   -0.82350E-07 10620   0.245E-03    0.304E-03
DAV:  35    -0.498513662560E+03   -0.32002E-04   -0.13264E-06 12018   0.270E-03    0.264E-03
DAV:  36    -0.498513690851E+03   -0.28291E-04   -0.11794E-06 11794   0.216E-03    0.257E-03
DAV:  37    -0.498513704013E+03   -0.13162E-04   -0.46307E-07  9208   0.204E-03    0.219E-03
DAV:  38    -0.498513712363E+03   -0.83501E-05   -0.41416E-07  8904   0.156E-03    0.195E-03
DAV:  39    -0.498513720224E+03   -0.78610E-05   -0.40405E-07 10038   0.146E-03    0.174E-03
DAV:  40    -0.498513727711E+03   -0.74872E-05   -0.44486E-07  9730   0.127E-03    0.150E-03
DAV:  41    -0.498513731786E+03   -0.40745E-05   -0.24314E-07  8408   0.111E-03    0.133E-03
DAV:  42    -0.498513736154E+03   -0.43685E-05   -0.47187E-07 10816   0.104E-03    0.110E-03
DAV:  43    -0.498513737420E+03   -0.12659E-05   -0.20459E-07  8452   0.991E-04    0.921E-04
DAV:  44    -0.498513736913E+03    0.50728E-06   -0.25636E-07 10026   0.824E-04
  11 F= -.49851374E+03 E0= -.49851443E+03  d E =-.463274E-02  mag=    76.4800
 curvature:  -2.10 expect dE=-0.164E-02 dE for cont linesearch -0.120E-03
 ZBRENT: extrapolating
 opt :   3.7018  next Energy=  -498.513869 (dE=-0.477E-02)
 bond charge predicted
       N       E                     dE             d eps       ncg     rms          rms(c)
DAV:   1    -0.498507481595E+03    0.62558E-02   -0.42479E-01 17816   0.190E+00    0.369E-01
DAV:   2    -0.498514163172E+03   -0.66816E-02   -0.57272E-02 17884   0.524E-01    0.365E-01
DAV:   3    -0.498516314251E+03   -0.21511E-02   -0.11969E-02 26032   0.691E-01    0.694E-01
DAV:   4    -0.498513980066E+03    0.23342E-02   -0.64105E-03 26296   0.490E-01    0.204E-01
DAV:   5    -0.498513919751E+03    0.60315E-04   -0.80585E-04 25432   0.144E-01    0.146E-01
DAV:   6    -0.498513875330E+03    0.44421E-04   -0.23886E-04 24672   0.758E-02    0.969E-02
DAV:   7    -0.498513856195E+03    0.19135E-04   -0.86433E-05 24576   0.550E-02    0.749E-02
DAV:   8    -0.498513862415E+03   -0.62207E-05   -0.10062E-04 25448   0.523E-02    0.861E-02
DAV:   9    -0.498513862712E+03   -0.29615E-06   -0.18533E-04 26016   0.732E-02    0.934E-02
DAV:  10    -0.498513817306E+03    0.45406E-04   -0.17123E-04 26528   0.697E-02    0.464E-02
DAV:  11    -0.498513812786E+03    0.45197E-05   -0.71544E-05 26136   0.452E-02    0.460E-02
DAV:  12    -0.498513805769E+03    0.70178E-05   -0.36726E-05 24336   0.343E-02    0.392E-02
DAV:  13    -0.498513798742E+03    0.70270E-05   -0.18095E-05 23408   0.234E-02    0.127E-02
DAV:  14    -0.498513798559E+03    0.18210E-06   -0.36730E-06 13400   0.124E-02
  12 F= -.49851380E+03 E0= -.49851450E+03  d E =-.469439E-02  mag=    76.4834
 curvature:  -2.32 expect dE=-0.240E-02 dE for cont linesearch -0.328E-08
 trial: gam= 0.41909 g(F)=  0.103E-02 g(S)=  0.000E+00 ort =-0.212E-05 (trialstep = 0.213E+01)
 search vector abs. value=  0.159E-02
 bond charge predicted
       N       E                     dE             d eps       ncg     rms          rms(c)
DAV:   1    -0.498491426818E+03    0.22372E-01   -0.19165E+00 15742   0.355E+00    0.834E-01
DAV:   2    -0.498517653536E+03   -0.26227E-01   -0.19440E-01 20534   0.123E+00    0.941E-01
DAV:   3    -0.498528857685E+03   -0.11204E-01   -0.73048E-02 25160   0.184E+00    0.163E+00
DAV:   4    -0.498517808006E+03    0.11050E-01   -0.39249E-02 24504   0.123E+00    0.857E-01
DAV:   5    -0.498515096172E+03    0.27118E-02   -0.86904E-03 25472   0.484E-01    0.316E-01
slurmstepd: error: *** JOB 81397471 ON e10r4n17 CANCELLED AT 2025-02-06T18:00:17 ***
slurmstepd: error: *** STEP 81397471.0 ON e10r4n17 CANCELLED AT 2025-02-06T18:00:17 ***
