srun: ROUTE: split_hostlist: hl=b01r4n08 tree_width 0
 running on    4 total cores
 distrk:  each k-point on    1 cores,    4 groups
 distr:  one band on    1 cores,    1 groups
 HIP runtime initialized ...    4 DCUs will be used
 Created    4 streams on each DCU
 vasp.6.3.2 27Jun22 (build Mar 15 2023 15:45:48) complex                        
  
 POSCAR found type information on POSCAR FeCr
 POSCAR found :  2 types and      62 ions
 Reading from existing POTCAR
 -----------------------------------------------------------------------------
|                                                                             |
|           W    W    AA    RRRRR   N    N  II  N    N   GGGG   !!!           |
|           W    W   A  A   R    R  NN   N  II  NN   N  G    G  !!!           |
|           W    W  A    A  R    R  N N  N  II  N N  N  G       !!!           |
|           W WW W  AAAAAA  RRRRR   N  N N  II  N  N N  G  GGG   !            |
|           WW  WW  A    A  R   R   N   NN  II  N   NN  G    G                |
|           W    W  A    A  R    R  N    N  II  N    N   GGGG   !!!           |
|                                                                             |
|     You use a magnetic or noncollinear calculation, but did not specify     |
|     the initial magnetic moment with the MAGMOM tag. Note that a            |
|     default of 1 will be used for all atoms. This ferromagnetic setup       |
|     may break the symmetry of the crystal, in particular it may rule        |
|     out finding an antiferromagnetic solution. Thence, we recommend         |
|     setting the initial magnetic moment manually or verifying carefully     |
|     that this magnetic setup is desired.                                    |
|                                                                             |
 -----------------------------------------------------------------------------

 scaLAPACK will be used selectively (only on CPU)
 Reading from existing POTCAR
 LDA part: xc-table for Pade appr. of Perdew
 POSCAR found type information on POSCAR FeCr
 POSCAR found :  2 types and      62 ions
 Optimize memory usage for KPAR
 POSCAR, INCAR and KPOINTS ok, starting setup
 FFT: planning ... GRIDC
 FFT: planning ... GRID_SOFT
 FFT: planning ... GRID
 WAVECAR not read
 WARNING: chargedensity file is incomplete
 WARNING: random wavefunctions but no delay for mixing, default for NELMDL
 entering main loop
       N       E                     dE             d eps       ncg     rms          rms(c)
DAV:   1     0.535580197226E+04    0.53558E+04   -0.23630E+05 15344   0.143E+03
DAV:   2    -0.984327969054E+02   -0.54542E+04   -0.52617E+04 14480   0.420E+02
DAV:   3    -0.519942215035E+03   -0.42151E+03   -0.37412E+03 14898   0.158E+02
DAV:   4    -0.576524675296E+03   -0.56582E+02   -0.52889E+02 25624   0.439E+01
DAV:   5    -0.579724043154E+03   -0.31994E+01   -0.30213E+01 23696   0.994E+00    0.935E+01
DAV:   6    -0.685953098511E+03   -0.10623E+03   -0.34259E+02 26352   0.820E+01    0.150E+02
DAV:   7    -0.608919477625E+03    0.77034E+02   -0.25069E+02 26896   0.921E+01    0.129E+02
DAV:   8    -0.554457915084E+03    0.54462E+02   -0.12294E+02 26440   0.665E+01    0.948E+01
DAV:   9    -0.523405332426E+03    0.31053E+02   -0.64897E+01 24664   0.389E+01    0.691E+01
DAV:  10    -0.503008643169E+03    0.20397E+02   -0.55723E+01 23408   0.297E+01    0.536E+01
DAV:  11    -0.490020539477E+03    0.12988E+02   -0.56922E+01 20680   0.286E+01    0.436E+01
DAV:  12    -0.487015462776E+03    0.30051E+01   -0.19347E+01 21464   0.182E+01    0.362E+01
DAV:  13    -0.487681055194E+03   -0.66559E+00   -0.40645E+00 21048   0.825E+00    0.361E+01
DAV:  14    -0.487809011967E+03   -0.12796E+00   -0.64491E-01 18304   0.266E+00    0.360E+01
DAV:  15    -0.487698832346E+03    0.11018E+00   -0.11817E-01 26808   0.942E-01    0.366E+01
DAV:  16    -0.489208035615E+03   -0.15092E+01   -0.99258E-01 25960   0.405E+00    0.343E+01
DAV:  17    -0.493764730497E+03   -0.45567E+01   -0.55310E+00 24552   0.867E+00    0.286E+01
DAV:  18    -0.496769039739E+03   -0.30043E+01   -0.52522E+00 24912   0.887E+00    0.249E+01
DAV:  19    -0.496890540085E+03   -0.12150E+00   -0.31055E+00 24632   0.622E+00    0.205E+01
DAV:  20    -0.497228167587E+03   -0.33763E+00   -0.11933E+00 23752   0.389E+00    0.201E+01
DAV:  21    -0.497581101976E+03   -0.35293E+00   -0.45443E-01 23608   0.223E+00    0.190E+01
DAV:  22    -0.498270876645E+03   -0.68977E+00   -0.12283E+00 25864   0.381E+00    0.165E+01
DAV:  23    -0.498506074617E+03   -0.23520E+00   -0.93880E-01 26024   0.368E+00    0.141E+01
DAV:  24    -0.498877584401E+03   -0.37151E+00   -0.12589E+00 25976   0.401E+00    0.117E+01
DAV:  25    -0.499126882680E+03   -0.24930E+00   -0.85078E-01 24864   0.281E+00    0.987E+00
DAV:  26    -0.499237265120E+03   -0.11038E+00   -0.31643E-01 24664   0.169E+00    0.858E+00
DAV:  27    -0.499447048067E+03   -0.20978E+00   -0.37795E-01 25744   0.203E+00    0.809E+00
DAV:  28    -0.499587033564E+03   -0.13999E+00   -0.35121E-01 25512   0.194E+00    0.669E+00
DAV:  29    -0.499667900775E+03   -0.80867E-01   -0.34432E-01 25248   0.180E+00    0.626E+00
DAV:  30    -0.499685739141E+03   -0.17838E-01   -0.71600E-02 23360   0.101E+00    0.595E+00
DAV:  31    -0.499733044224E+03   -0.47305E-01   -0.49281E-02 24616   0.681E-01    0.566E+00
DAV:  32    -0.499819450963E+03   -0.86407E-01   -0.11366E-01 25232   0.946E-01    0.488E+00
DAV:  33    -0.499913799420E+03   -0.94348E-01   -0.35490E-01 25464   0.164E+00    0.316E+00
DAV:  34    -0.499917347567E+03   -0.35481E-02   -0.76369E-02 21920   0.100E+00    0.244E+00
DAV:  35    -0.499924642940E+03   -0.72954E-02   -0.51939E-02 25744   0.798E-01    0.173E+00
DAV:  36    -0.499927226034E+03   -0.25831E-02   -0.40265E-02 24072   0.501E-01    0.138E+00
DAV:  37    -0.499930118272E+03   -0.28922E-02   -0.12482E-02 24368   0.482E-01    0.121E+00
DAV:  38    -0.499930663828E+03   -0.54556E-03   -0.14360E-02 23776   0.411E-01    0.977E-01
DAV:  39    -0.499929534064E+03    0.11298E-02   -0.97723E-03 24976   0.319E-01    0.774E-01
DAV:  40    -0.499930903805E+03   -0.13697E-02   -0.34623E-03 24312   0.221E-01    0.592E-01
DAV:  41    -0.499931389551E+03   -0.48575E-03   -0.39537E-03 25104   0.201E-01    0.456E-01
DAV:  42    -0.499931798316E+03   -0.40876E-03   -0.15636E-03 24312   0.168E-01    0.347E-01
DAV:  43    -0.499931880868E+03   -0.82552E-04   -0.12472E-03 23728   0.114E-01    0.237E-01
DAV:  44    -0.499931962259E+03   -0.81391E-04   -0.71470E-04 23600   0.798E-02    0.195E-01
DAV:  45    -0.499932022257E+03   -0.59997E-04   -0.20900E-04 23944   0.689E-02    0.157E-01
DAV:  46    -0.499932115482E+03   -0.93225E-04   -0.40397E-04 24096   0.615E-02    0.114E-01
DAV:  47    -0.499932138660E+03   -0.23179E-04   -0.15003E-04 21512   0.441E-02    0.106E-01
DAV:  48    -0.499932124031E+03    0.14629E-04   -0.51480E-05 16032   0.346E-02    0.748E-02
DAV:  49    -0.499932122714E+03    0.13174E-05   -0.48870E-05 12528   0.259E-02
   1 F= -.49993212E+03 E0= -.49994188E+03  d E =-.499932E+03  mag=   112.6385
 curvature:   0.00 expect dE= 0.000E+00 dE for cont linesearch  0.000E+00
 trial: gam= 0.00000 g(F)=  0.251E-02 g(S)=  0.000E+00 ort = 0.000E+00 (trialstep = 0.100E+01)
 search vector abs. value=  0.251E-02
 bond charge predicted
       N       E                     dE             d eps       ncg     rms          rms(c)
DAV:   1    -0.499927718876E+03    0.44052E-02   -0.58258E-01 15296   0.195E+00    0.456E-01
DAV:   2    -0.499933762430E+03   -0.60436E-02   -0.47697E-02 17456   0.581E-01    0.560E-01
DAV:   3    -0.499934687451E+03   -0.92502E-03   -0.15080E-02 21904   0.656E-01    0.630E-01
DAV:   4    -0.499933373125E+03    0.13143E-02   -0.63371E-03 25000   0.380E-01    0.286E-01
DAV:   5    -0.499933888069E+03   -0.51494E-03   -0.67501E-04 25264   0.137E-01    0.243E-01
DAV:   6    -0.499934186775E+03   -0.29871E-03   -0.10630E-03 24448   0.197E-01    0.148E-01
DAV:   7    -0.499934137497E+03    0.49278E-04   -0.32974E-04 22880   0.946E-02    0.703E-02
DAV:   8    -0.499934145886E+03   -0.83888E-05   -0.60805E-05 13568   0.306E-02
   2 F= -.49993415E+03 E0= -.49994407E+03  d E =-.202317E-02  mag=   112.6348
 trial-energy change:   -0.002023  1 .order   -0.002084   -0.002508   -0.001660
 step:   2.9571(harm=  2.9571)  dis= 0.01180  next Energy=  -499.935831 (dE=-0.371E-02)
 bond charge predicted
       N       E                     dE             d eps       ncg     rms          rms(c)
DAV:   1    -0.499910658687E+03    0.23479E-01   -0.22322E+00 15138   0.382E+00    0.888E-01
DAV:   2    -0.499930033413E+03   -0.19375E-01   -0.17594E-01 15420   0.996E-01    0.678E-01
DAV:   3    -0.499942139003E+03   -0.12106E-01   -0.33068E-02 26200   0.913E-01    0.136E+00
DAV:   4    -0.499932784817E+03    0.93542E-02   -0.39313E-02 27008   0.941E-01    0.645E-01
DAV:   5    -0.499934275478E+03   -0.14907E-02   -0.34393E-03 25976   0.262E-01    0.472E-01
DAV:   6    -0.499935198407E+03   -0.92293E-03   -0.30105E-03 25064   0.327E-01    0.251E-01
DAV:   7    -0.499935145122E+03    0.53285E-04   -0.97725E-04 22776   0.162E-01    0.160E-01
DAV:   8    -0.499935141914E+03    0.32084E-05   -0.19000E-04 21208   0.543E-02    0.155E-01
DAV:   9    -0.499935111160E+03    0.30753E-04   -0.95685E-05 16992   0.343E-02    0.131E-01
DAV:  10    -0.499935042780E+03    0.68381E-04   -0.27399E-04 23192   0.618E-02    0.649E-02
DAV:  11    -0.499935052411E+03   -0.96317E-05   -0.47323E-05 14800   0.214E-02
   3 F= -.49993505E+03 E0= -.49994523E+03  d E =-.292970E-02  mag=   112.6297
 curvature:  -1.48 expect dE=-0.109E-02 dE for cont linesearch -0.111E-03
 ZBRENT: interpolating
 opt :   2.5522  next Energy=  -499.935140 (dE=-0.302E-02)
 bond charge predicted
       N       E                     dE             d eps       ncg     rms          rms(c)
DAV:   1    -0.499934123267E+03    0.91951E-03   -0.95569E-02 15166   0.792E-01    0.187E-01
DAV:   2    -0.499935050178E+03   -0.92691E-03   -0.77711E-03 15560   0.224E-01    0.184E-01
DAV:   3    -0.499935704021E+03   -0.65384E-03   -0.30958E-03 24632   0.279E-01    0.358E-01
DAV:   4    -0.499935046675E+03    0.65735E-03   -0.20441E-03 21160   0.222E-01    0.117E-01
DAV:   5    -0.499935155396E+03   -0.10872E-03   -0.16861E-04 15480   0.817E-02    0.100E-01
DAV:   6    -0.499935220767E+03   -0.65370E-04   -0.11133E-04 21816   0.492E-02    0.568E-02
DAV:   7    -0.499935221018E+03   -0.25170E-06   -0.20384E-05  9648   0.249E-02
   4 F= -.49993522E+03 E0= -.49994534E+03  d E =-.309830E-02  mag=   112.6333
 curvature:  -1.17 expect dE=-0.598E-03 dE for cont linesearch -0.127E-04
 ZBRENT: interpolating
 opt :   2.3256  next Energy=  -499.935241 (dE=-0.312E-02)
 bond charge predicted
       N       E                     dE             d eps       ncg     rms          rms(c)
DAV:   1    -0.499934897928E+03    0.32284E-03   -0.29936E-02 15090   0.443E-01    0.102E-01
DAV:   2    -0.499935166253E+03   -0.26833E-03   -0.24029E-03 15256   0.125E-01    0.981E-02
DAV:   3    -0.499935338529E+03   -0.17228E-03   -0.75795E-04 21280   0.142E-01    0.181E-01
DAV:   4    -0.499935170036E+03    0.16849E-03   -0.56596E-04 13472   0.115E-01    0.756E-02
DAV:   5    -0.499935210237E+03   -0.40201E-04   -0.37811E-05 13864   0.282E-02    0.688E-02
DAV:   6    -0.499935215218E+03   -0.49812E-05   -0.52828E-05 12536   0.463E-02
   5 F= -.49993522E+03 E0= -.49994532E+03  d E =-.309250E-02  mag=   112.6354
 curvature:  -1.88 expect dE=-0.831E-03 dE for cont linesearch -0.116E-04
 ZBRENT: interpolating
 opt :   2.4229  next Energy=  -499.935221 (dE=-0.310E-02)
 bond charge predicted
       N       E                     dE             d eps       ncg     rms          rms(c)
DAV:   1    -0.499935164932E+03    0.45305E-04   -0.55329E-03 15056   0.189E-01    0.520E-02
DAV:   2    -0.499935381921E+03   -0.21699E-03   -0.87324E-04 23608   0.123E-01    0.168E-01
DAV:   3    -0.499935201423E+03    0.18050E-03   -0.59311E-04 21072   0.120E-01    0.443E-02
DAV:   4    -0.499935219228E+03   -0.17805E-04   -0.29727E-05 11472   0.244E-02    0.242E-02
DAV:   5    -0.499935223687E+03   -0.44587E-05   -0.81517E-06  8256   0.110E-02
   6 F= -.49993522E+03 E0= -.49994533E+03  d E =-.310097E-02  mag=   112.6352
 curvature:  -0.98 expect dE=-0.444E-03 dE for cont linesearch -0.462E-05
 ZBRENT: interpolating
 opt :   2.3775  next Energy=  -499.935226 (dE=-0.310E-02)
 bond charge predicted
       N       E                     dE             d eps       ncg     rms          rms(c)
DAV:   1    -0.499935214892E+03    0.43364E-05   -0.11905E-03 14984   0.901E-02    0.250E-02
DAV:   2    -0.499935374143E+03   -0.15925E-03   -0.47830E-04 14984   0.105E-01    0.157E-01
DAV:   3    -0.499935206715E+03    0.16743E-03   -0.36154E-04 14296   0.955E-02    0.156E-02
DAV:   4    -0.499935221657E+03   -0.14942E-04   -0.22191E-05 11464   0.164E-02    0.165E-02
DAV:   5    -0.499935222908E+03   -0.12513E-05   -0.45335E-06  8464   0.990E-03
   7 F= -.49993522E+03 E0= -.49994533E+03  d E =-.310019E-02  mag=   112.6353
 curvature:  -0.52 expect dE=-0.234E-03 dE for cont linesearch -0.287E-05
 ZBRENT: interpolating
 opt :   2.4011  next Energy=  -499.935225 (dE=-0.310E-02)
 bond charge predicted
       N       E                     dE             d eps       ncg     rms          rms(c)
DAV:   1    -0.499935222411E+03   -0.75343E-06   -0.31582E-04 15104   0.461E-02    0.121E-02
DAV:   2    -0.499935242636E+03   -0.20226E-04   -0.61936E-05 10168   0.365E-02    0.549E-02
DAV:   3    -0.499935221288E+03    0.21348E-04   -0.43911E-05  8848   0.360E-02    0.793E-03
DAV:   4    -0.499935225661E+03   -0.43728E-05   -0.43151E-06  8144   0.660E-03
   8 F= -.49993523E+03 E0= -.49994533E+03  d E =-.310295E-02  mag=   112.6353
 curvature:  -0.22 expect dE=-0.964E-04 dE for cont linesearch -0.654E-07
 trial: gam= 0.18881 g(F)=  0.446E-03 g(S)=  0.000E+00 ort =-0.275E-04 (trialstep = 0.128E+01)
 search vector abs. value=  0.525E-03
 bond charge predicted
       N       E                     dE             d eps       ncg     rms          rms(c)
DAV:   1    -0.499932926014E+03    0.22953E-02   -0.21736E-01 15616   0.120E+00    0.286E-01
DAV:   2    -0.499935222553E+03   -0.22965E-02   -0.20355E-02 15420   0.307E-01    0.237E-01
DAV:   3    -0.499937538902E+03   -0.23163E-02   -0.79246E-03 26680   0.439E-01    0.624E-01
DAV:   4    -0.499935325757E+03    0.22131E-02   -0.60613E-03 25160   0.363E-01    0.158E-01
DAV:   5    -0.499935679243E+03   -0.35349E-03   -0.36462E-04 22600   0.799E-02    0.111E-01
DAV:   6    -0.499935743685E+03   -0.64442E-04   -0.14070E-04 20584   0.742E-02    0.102E-01
DAV:   7    -0.499935688445E+03    0.55239E-04   -0.12690E-04 15856   0.699E-02    0.342E-02
DAV:   8    -0.499935693701E+03   -0.52560E-05   -0.19191E-05 10280   0.144E-02
   9 F= -.49993569E+03 E0= -.49994582E+03  d E =-.468041E-03  mag=   112.6363
 trial-energy change:   -0.000468  1 .order   -0.000492   -0.000564   -0.000419
 step:   4.9657(harm=  4.9657)  dis= 0.00974  next Energy=  -499.936320 (dE=-0.109E-02)
 bond charge predicted
       N       E                     dE             d eps       ncg     rms          rms(c)
DAV:   1    -0.499912891425E+03    0.22797E-01   -0.17999E+00 15568   0.346E+00    0.822E-01
DAV:   2    -0.499931927431E+03   -0.19036E-01   -0.16913E-01 15460   0.877E-01    0.658E-01
DAV:   3    -0.499951889373E+03   -0.19962E-01   -0.64510E-02 27104   0.123E+00    0.181E+00
DAV:   4    -0.499932937682E+03    0.18952E-01   -0.51889E-02 27592   0.105E+00    0.463E-01
DAV:   5    -0.499935785888E+03   -0.28482E-02   -0.29630E-03 23720   0.232E-01    0.346E-01
DAV:   6    -0.499936416125E+03   -0.63024E-03   -0.15568E-03 25312   0.241E-01    0.318E-01
DAV:   7    -0.499935898352E+03    0.51777E-03   -0.13198E-03 23744   0.213E-01    0.112E-01
DAV:   8    -0.499935921395E+03   -0.23043E-04   -0.17215E-04 19608   0.432E-02    0.104E-01
DAV:   9    -0.499935904190E+03    0.17205E-04   -0.37897E-05 14368   0.286E-02    0.890E-02
DAV:  10    -0.499935862649E+03    0.41540E-04   -0.13753E-04 21336   0.353E-02    0.527E-02
DAV:  11    -0.499935860544E+03    0.21054E-05   -0.30840E-05 11288   0.184E-02
  10 F= -.49993586E+03 E0= -.49994604E+03  d E =-.634883E-03  mag=   112.6427
 curvature:  -2.96 expect dE=-0.902E-03 dE for cont linesearch -0.106E-03
 ZBRENT: interpolating
 opt :   3.8757  next Energy=  -499.935935 (dE=-0.710E-03)
 bond charge predicted
       N       E                     dE             d eps       ncg     rms          rms(c)
DAV:   1    -0.499933943384E+03    0.19193E-02   -0.15734E-01 15612   0.102E+00    0.244E-01
DAV:   2    -0.499935601109E+03   -0.16577E-02   -0.14943E-02 15324   0.252E-01    0.172E-01
DAV:   3    -0.499936183820E+03   -0.58271E-03   -0.14355E-03 24560   0.176E-01    0.288E-01
DAV:   4    -0.499935804552E+03    0.37927E-03   -0.16921E-03 19504   0.197E-01    0.158E-01
DAV:   5    -0.499936003593E+03   -0.19904E-03   -0.24960E-04 22840   0.724E-02    0.109E-01
DAV:   6    -0.499936006065E+03   -0.24717E-05   -0.19027E-04 23056   0.844E-02    0.365E-02
DAV:   7    -0.499936009704E+03   -0.36392E-05   -0.29260E-05 12072   0.240E-02
  11 F= -.49993601E+03 E0= -.49994616E+03  d E =-.784044E-03  mag=   112.6416
 curvature:  -2.08 expect dE=-0.369E-03 dE for cont linesearch -0.207E-04
 ZBRENT: interpolating
 opt :   2.8846  next Energy=  -499.936052 (dE=-0.826E-03)
 bond charge predicted
       N       E                     dE             d eps       ncg     rms          rms(c)
DAV:   1    -0.499934320302E+03    0.16858E-02   -0.13002E-01 15606   0.931E-01    0.220E-01
DAV:   2    -0.499935801056E+03   -0.14808E-02   -0.12566E-02 15700   0.254E-01    0.227E-01
DAV:   3    -0.499936535670E+03   -0.73461E-03   -0.41631E-03 23648   0.331E-01    0.394E-01
DAV:   4    -0.499935768819E+03    0.76685E-03   -0.21862E-03 19552   0.223E-01    0.126E-01
DAV:   5    -0.499935983047E+03   -0.21423E-03   -0.22983E-04 22032   0.643E-02    0.909E-02
DAV:   6    -0.499936018293E+03   -0.35245E-04   -0.70437E-05 17000   0.511E-02    0.833E-02
DAV:   7    -0.499935982974E+03    0.35318E-04   -0.64523E-05 12104   0.539E-02    0.351E-02
DAV:   8    -0.499935986390E+03   -0.34160E-05   -0.17829E-05  9424   0.126E-02
  12 F= -.49993599E+03 E0= -.49994613E+03  d E =-.760730E-03  mag=   112.6408
 curvature:  -4.25 expect dE=-0.400E-03 dE for cont linesearch -0.779E-05
 ZBRENT: interpolating
 opt :   3.1823  next Energy=  -499.935991 (dE=-0.765E-03)
 bond charge predicted
       N       E                     dE             d eps       ncg     rms          rms(c)
DAV:   1    -0.499935847143E+03    0.13583E-03   -0.11708E-02 15496   0.279E-01    0.751E-02
DAV:   2    -0.499935988602E+03   -0.14146E-03   -0.11754E-03 15236   0.826E-02    0.694E-02
DAV:   3    -0.499936112109E+03   -0.12351E-03   -0.52831E-04 14200   0.116E-01    0.152E-01
DAV:   4    -0.499935979140E+03    0.13297E-03   -0.35795E-04 10856   0.939E-02    0.404E-02
DAV:   5    -0.499936004252E+03   -0.25112E-04   -0.27063E-05 12312   0.179E-02    0.151E-02
DAV:   6    -0.499936005678E+03   -0.14260E-05   -0.69727E-06  8104   0.103E-02
  13 F= -.49993601E+03 E0= -.49994615E+03  d E =-.780017E-03  mag=   112.6405
 curvature:  -2.52 expect dE=-0.268E-03 dE for cont linesearch -0.449E-07
 trial: gam= 0.23347 g(F)=  0.106E-03 g(S)=  0.000E+00 ort = 0.306E-05 (trialstep = 0.166E+01)
 search vector abs. value=  0.136E-03
 bond charge predicted
       N       E                     dE             d eps       ncg     rms          rms(c)
DAV:   1    -0.499934773581E+03    0.12307E-02   -0.10832E-01 16150   0.884E-01    0.187E-01
DAV:   2    -0.499935931156E+03   -0.11576E-02   -0.10896E-02 15384   0.207E-01    0.127E-01
DAV:   3    -0.499936301650E+03   -0.37049E-03   -0.99610E-04 18912   0.142E-01    0.237E-01
DAV:   4    -0.499936037545E+03    0.26410E-03   -0.11081E-03 17024   0.161E-01    0.116E-01
DAV:   5    -0.499936154343E+03   -0.11680E-03   -0.19497E-04 15992   0.814E-02    0.750E-02
DAV:   6    -0.499936146426E+03    0.79170E-05   -0.10962E-04 20880   0.597E-02    0.272E-02
DAV:   7    -0.499936150144E+03   -0.37185E-05   -0.20442E-05  9528   0.162E-02
  14 F= -.49993615E+03 E0= -.49994632E+03  d E =-.144467E-03  mag=   112.6360
 trial-energy change:   -0.000144  1 .order   -0.000146   -0.000178   -0.000115
 step:   4.7043(harm=  4.7043)  dis= 0.00449  next Energy=  -499.936258 (dE=-0.252E-03)
 reached required accuracy - stopping structural energy minimisation
 PROFILE, used timers:     231
