<?xml version="1.0" encoding="ISO-8859-1"?>
<modeling>
 <generator>
  <i name="program" type="string">vasp </i>
  <i name="version" type="string">6.3.2  </i>
  <i name="subversion" type="string">27Jun22 (build Mar 15 2023 15:45:48) complex                          parallel </i>
  <i name="platform" type="string">LinuxIFC </i>
  <i name="date" type="string">2025 02 08 </i>
  <i name="time" type="string">06:08:56 </i>
 </generator>
 <incar>
  <i type="string" name="SYSTEM">ni3al</i>
  <i type="int" name="ISTART">     1</i>
  <i type="string" name="PREC">Accurate</i>
  <i type="string" name="ALGO">Normal</i>
  <i type="int" name="ISPIN">     2</i>
  <i type="int" name="IMIX">     4</i>
  <i name="AMIX">      0.05000000</i>
  <i name="BMIX">      0.00010000</i>
  <i name="AMIN">      0.01000000</i>
  <i type="int" name="ICHARG">     1</i>
  <i type="int" name="NELM">   150</i>
  <i type="int" name="IBRION">     2</i>
  <i name="EDIFF">      0.00001000</i>
  <i name="EDIFFG">     -0.02000000</i>
  <i type="int" name="NSW">   300</i>
  <i type="int" name="ISIF">     2</i>
  <i name="ENCUT">    450.00000000</i>
  <i type="string" name="LREAL">Auto</i>
  <i type="int" name="ISMEAR">     1</i>
  <i name="SIGMA">      0.15000000</i>
  <i type="int" name="LMAXMIX">     4</i>
  <i type="logical" name="LWAVE"> F  </i>
  <i type="logical" name="LCHARG"> F  </i>
  <i type="logical" name="LDIPOL"> T  </i>
  <i type="int" name="IDIPOL">     3</i>
 </incar>
 <primitive_cell>
  <structure name="primitive_cell" >
   <crystal>
    <varray name="basis" >
     <v>       8.53269958       0.00000000       0.00000000 </v>
     <v>      -0.00051933       8.49699972       0.00000000 </v>
     <v>       0.00000000       0.00000000      23.59499931 </v>
    </varray>
    <i name="volume">   1710.69280467 </i>
    <varray name="rec_basis" >
     <v>       0.11719620       0.00000716       0.00000000 </v>
     <v>       0.00000000       0.11768860       0.00000000 </v>
     <v>       0.00000000       0.00000000       0.04238186 </v>
    </varray>
   </crystal>
   <varray name="positions" >
    <v>       0.00086000       0.99993000       0.24271000 </v>
    <v>       0.16537838       0.16585743       0.30249319 </v>
    <v>       0.49960507       0.16104418       0.30054117 </v>
    <v>       0.66822000       0.00107000       0.24272000 </v>
    <v>       0.83595696       0.16690958       0.30192544 </v>
    <v>       0.00044000       0.33497000       0.24240000 </v>
    <v>       0.16994616       0.50377794       0.30381005 </v>
    <v>       0.33469000       0.33305000       0.24267000 </v>
    <v>       0.49849340       0.50743122       0.30242479 </v>
    <v>       0.83322799       0.49954466       0.30177594 </v>
    <v>       0.16969753       0.83236280       0.30428057 </v>
    <v>       0.33342000       0.66555000       0.24261000 </v>
    <v>       0.83612876       0.83367166       0.30192023 </v>
    <v>       0.00064000       0.00119000       0.00199000 </v>
    <v>       0.00238511       0.00112389       0.36034613 </v>
    <v>       0.16843000       0.16962000       0.06269000 </v>
    <v>       0.33460000       0.00297000       0.00254000 </v>
    <v>       0.33333057       0.01005393       0.36211451 </v>
    <v>       0.50463000       0.16850000       0.06120000 </v>
    <v>       0.83272000       0.16670000       0.06193000 </v>
    <v>       0.00004000       0.33467000       0.00213000 </v>
    <v>       0.00294303       0.33411725       0.35939893 </v>
    <v>       0.16757000       0.49895000       0.06268000 </v>
    <v>       0.50099000       0.49896000       0.06206000 </v>
    <v>       0.83393000       0.50234000       0.06235000 </v>
    <v>       0.00121000       0.66785000       0.00188000 </v>
    <v>       0.99300872       0.66422936       0.36049002 </v>
    <v>       0.16792000       0.83462000       0.06228000 </v>
    <v>       0.33437000       0.66664000       0.00225000 </v>
    <v>       0.50152000       0.83563000       0.06217000 </v>
    <v>       0.66753000       0.66705000       0.00175000 </v>
    <v>       0.66834250       0.66597200       0.35916774 </v>
    <v>       0.83293000       0.83584000       0.06235000 </v>
    <v>       0.00121000       0.00098000       0.12225000 </v>
    <v>       0.16700000       0.16811000       0.18239000 </v>
    <v>       0.33470000       0.00227000       0.12192000 </v>
    <v>       0.50174000       0.16716000       0.18263000 </v>
    <v>       0.83421000       0.16639000       0.18283000 </v>
    <v>       0.16964000       0.49868000       0.18209000 </v>
    <v>       0.50219000       0.50081000       0.18317000 </v>
    <v>       0.66741000       0.33395000       0.12233000 </v>
    <v>       0.83134000       0.50253000       0.18283000 </v>
    <v>       0.00132000       0.66795000       0.12253000 </v>
    <v>       0.16898000       0.83509000       0.18243000 </v>
    <v>       0.33446000       0.66703000       0.12223000 </v>
    <v>       0.49971000       0.83538000       0.18278000 </v>
    <v>       0.66698000       0.66840000       0.12259000 </v>
    <v>       0.83488000       0.83403000       0.18294000 </v>
    <v>       0.33558000       0.99863000       0.24353000 </v>
    <v>       0.66801000       0.33262000       0.24229000 </v>
    <v>       0.00448000       0.66739000       0.24217000 </v>
    <v>       0.49679050       0.83508720       0.30340677 </v>
    <v>       0.66521000       0.67351000       0.24327000 </v>
    <v>       0.66620000       0.99680000       0.00000000 </v>
    <v>       0.65770617       0.99707992       0.36490022 </v>
    <v>       0.33213000       0.33386000       0.00135000 </v>
    <v>       0.34225976       0.32791790       0.36220402 </v>
    <v>       0.67040000       0.33673000       0.00321000 </v>
    <v>       0.65881568       0.33045147       0.36734064 </v>
    <v>       0.66728000       0.99998000       0.12246000 </v>
    <v>       0.99806000       0.33495000       0.12235000 </v>
    <v>       0.33675000       0.33238000       0.12261000 </v>
   </varray>
  </structure>
  <varray name="primitive_index" >
   <v type="int" >        1 </v>
   <v type="int" >        2 </v>
   <v type="int" >        3 </v>
   <v type="int" >        4 </v>
   <v type="int" >        5 </v>
   <v type="int" >        6 </v>
   <v type="int" >        7 </v>
   <v type="int" >        8 </v>
   <v type="int" >        9 </v>
   <v type="int" >       10 </v>
   <v type="int" >       11 </v>
   <v type="int" >       12 </v>
   <v type="int" >       13 </v>
   <v type="int" >       14 </v>
   <v type="int" >       15 </v>
   <v type="int" >       16 </v>
   <v type="int" >       17 </v>
   <v type="int" >       18 </v>
   <v type="int" >       19 </v>
   <v type="int" >       20 </v>
   <v type="int" >       21 </v>
   <v type="int" >       22 </v>
   <v type="int" >       23 </v>
   <v type="int" >       24 </v>
   <v type="int" >       25 </v>
   <v type="int" >       26 </v>
   <v type="int" >       27 </v>
   <v type="int" >       28 </v>
   <v type="int" >       29 </v>
   <v type="int" >       30 </v>
   <v type="int" >       31 </v>
   <v type="int" >       32 </v>
   <v type="int" >       33 </v>
   <v type="int" >       34 </v>
   <v type="int" >       35 </v>
   <v type="int" >       36 </v>
   <v type="int" >       37 </v>
   <v type="int" >       38 </v>
   <v type="int" >       39 </v>
   <v type="int" >       40 </v>
   <v type="int" >       41 </v>
   <v type="int" >       42 </v>
   <v type="int" >       43 </v>
   <v type="int" >       44 </v>
   <v type="int" >       45 </v>
   <v type="int" >       46 </v>
   <v type="int" >       47 </v>
   <v type="int" >       48 </v>
   <v type="int" >       49 </v>
   <v type="int" >       50 </v>
   <v type="int" >       51 </v>
   <v type="int" >       52 </v>
   <v type="int" >       53 </v>
   <v type="int" >       54 </v>
   <v type="int" >       55 </v>
   <v type="int" >       56 </v>
   <v type="int" >       57 </v>
   <v type="int" >       58 </v>
   <v type="int" >       59 </v>
   <v type="int" >       60 </v>
   <v type="int" >       61 </v>
   <v type="int" >       62 </v>
  </varray>
 </primitive_cell>
 <kpoints>
  <generation param="Gamma">
   <v type="int" name="divisions">       4        4        1 </v>
   <v name="usershift">      0.00000000       0.00000000       0.00000000 </v>
   <v name="genvec1">      0.25000000       0.00000000       0.00000000 </v>
   <v name="genvec2">      0.00000000       0.25000000       0.00000000 </v>
   <v name="genvec3">      0.00000000       0.00000000       1.00000000 </v>
   <v name="shift">      0.00000000       0.00000000       0.00000000 </v>
  </generation>
  <varray name="kpointlist" >
   <v>       0.00000000       0.00000000       0.00000000 </v>
   <v>       0.25000000       0.00000000       0.00000000 </v>
   <v>       0.50000000       0.00000000       0.00000000 </v>
   <v>       0.00000000       0.25000000       0.00000000 </v>
   <v>       0.25000000       0.25000000       0.00000000 </v>
   <v>       0.50000000       0.25000000       0.00000000 </v>
   <v>      -0.25000000       0.25000000       0.00000000 </v>
   <v>       0.00000000       0.50000000       0.00000000 </v>
   <v>       0.25000000       0.50000000       0.00000000 </v>
   <v>       0.50000000       0.50000000       0.00000000 </v>
  </varray>
  <varray name="weights" >
   <v>       0.06250000 </v>
   <v>       0.12500000 </v>
   <v>       0.06250000 </v>
   <v>       0.12500000 </v>
   <v>       0.12500000 </v>
   <v>       0.12500000 </v>
   <v>       0.12500000 </v>
   <v>       0.06250000 </v>
   <v>       0.12500000 </v>
   <v>       0.06250000 </v>
  </varray>
 </kpoints>
 <parameters>
  <separator name="general" >
   <i type="string" name="SYSTEM">ni3al</i>
   <i type="logical" name="LCOMPAT"> F  </i>
  </separator>
  <separator name="electronic" >
   <i type="string" name="PREC">accura</i>
   <i name="ENMAX">    450.00000000</i>
   <i name="ENAUG">    519.42400000</i>
   <i name="EDIFF">      0.00001000</i>
   <i type="int" name="IALGO">    38</i>
   <i type="int" name="IWAVPR">    11</i>
   <i type="int" name="NBANDS">   362</i>
   <i type="int" name="NBANDSLOW">    -1</i>
   <i type="int" name="NBANDSHIGH">    -1</i>
   <i name="NELECT">    552.00000000</i>
   <i type="int" name="TURBO">     0</i>
   <i type="int" name="IRESTART">     0</i>
   <i type="int" name="NREBOOT">     0</i>
   <i type="int" name="NMIN">     0</i>
   <i name="EREF">      0.00000000</i>
   <separator name="electronic smearing" >
    <i type="int" name="ISMEAR">     1</i>
    <i name="SIGMA">      0.15000000</i>
    <i name="KSPACING">      0.50000000</i>
    <i type="logical" name="KGAMMA"> T  </i>
    <i type="logical" name="KBLOWUP"> T  </i>
   </separator>
   <separator name="electronic projectors" >
    <i type="logical" name="LREAL"> T  </i>
    <v name="ROPT">     -0.00025000     -0.00025000</v>
    <i type="int" name="LMAXPAW">  -100</i>
    <i type="int" name="LMAXMIX">     4</i>
    <i type="logical" name="NLSPLINE"> F  </i>
   </separator>
   <separator name="electronic startup" >
    <i type="int" name="ISTART">     0</i>
    <i type="int" name="ICHARG">     1</i>
    <i type="int" name="INIWAV">     1</i>
   </separator>
   <separator name="electronic spin" >
    <i type="int" name="ISPIN">     2</i>
    <i type="logical" name="LNONCOLLINEAR"> F  </i>
    <v name="MAGMOM">      1.00000000      1.00000000      1.00000000      1.00000000      1.00000000      1.00000000      1.00000000      1.00000000      1.00000000      1.00000000      1.00000000      1.00000000      1.00000000      1.00000000      1.00000000      1.00000000      1.00000000      1.00000000      1.00000000      1.00000000
      1.00000000      1.00000000      1.00000000      1.00000000      1.00000000      1.00000000      1.00000000      1.00000000      1.00000000      1.00000000      1.00000000      1.00000000      1.00000000      1.00000000      1.00000000      1.00000000      1.00000000      1.00000000      1.00000000      1.00000000
      1.00000000      1.00000000      1.00000000      1.00000000      1.00000000      1.00000000      1.00000000      1.00000000      1.00000000      1.00000000      1.00000000      1.00000000      1.00000000      1.00000000      1.00000000      1.00000000      1.00000000      1.00000000      1.00000000      1.00000000
      1.00000000      1.00000000</v>
    <i name="NUPDOWN">     -1.00000000</i>
    <i type="logical" name="LSORBIT"> F  </i>
    <v name="SAXIS">      0.00000000      0.00000000      1.00000000</v>
    <i type="logical" name="LSPIRAL"> F  </i>
    <v name="QSPIRAL">      0.00000000      0.00000000      0.00000000</v>
    <i type="logical" name="LZEROZ"> F  </i>
   </separator>
   <separator name="electronic exchange-correlation" >
    <i type="logical" name="LASPH"> F  </i>
    <i type="logical" name="LMETAGGA"> F  </i>
   </separator>
   <separator name="electronic convergence" >
    <i type="int" name="NELM">   150</i>
    <i type="int" name="NELMDL">     0</i>
    <i type="int" name="NELMIN">     2</i>
    <i name="ENINI">    450.00000000</i>
    <separator name="electronic convergence detail" >
     <i type="logical" name="LDIAG"> T  </i>
     <i type="logical" name="LSUBROT"> F  </i>
     <i name="WEIMIN">      0.00100000</i>
     <i name="EBREAK">      0.00000001</i>
     <i name="DEPER">      0.30000000</i>
     <i type="int" name="NRMM">     4</i>
     <i name="TIME">      0.40000000</i>
    </separator>
   </separator>
   <separator name="electronic mixer" >
    <i name="AMIX">      0.05000000</i>
    <i name="BMIX">      0.00010000</i>
    <i name="AMIN">      0.01000000</i>
    <i name="AMIX_MAG">      0.20000000</i>
    <i name="BMIX_MAG">      0.00010000</i>
    <separator name="electronic mixer details" >
     <i type="int" name="IMIX">     4</i>
     <i type="logical" name="MIXFIRST"> F  </i>
     <i type="int" name="MAXMIX">   -45</i>
     <i name="WC">    100.00000000</i>
     <i type="int" name="INIMIX">     1</i>
     <i type="int" name="MIXPRE">     1</i>
     <i type="int" name="MREMOVE">     5</i>
    </separator>
   </separator>
   <separator name="electronic dipolcorrection" >
    <i type="logical" name="LDIPOL"> T  </i>
    <i type="logical" name="LMONO"> F  </i>
    <i type="int" name="IDIPOL">     3</i>
    <i name="EPSILON">      1.00000000</i>
    <v name="DIPOL">   -100.00000000   -100.00000000   -100.00000000</v>
    <i name="EFIELD">      0.00000000</i>
   </separator>
  </separator>
  <separator name="grids" >
   <i type="int" name="NGX">    60</i>
   <i type="int" name="NGY">    60</i>
   <i type="int" name="NGZ">   168</i>
   <i type="int" name="NGXF">   120</i>
   <i type="int" name="NGYF">   120</i>
   <i type="int" name="NGZF">   336</i>
   <i type="logical" name="ADDGRID"> F  </i>
  </separator>
  <separator name="ionic" >
   <i type="int" name="NSW">   300</i>
   <i type="int" name="IBRION">     2</i>
   <i type="int" name="MDALGO">     0</i>
   <i type="int" name="ISIF">     2</i>
   <i name="PSTRESS">      0.00000000</i>
   <i name="EDIFFG">     -0.02000000</i>
   <i type="int" name="NFREE">     1</i>
   <i name="POTIM">      0.50000000</i>
   <i name="SMASS">     -3.00000000</i>
   <i name="SCALEE">      1.00000000</i>
  </separator>
  <separator name="ionic md" >
   <i name="TEBEG">      0.00010000</i>
   <i name="TEEND">      0.00010000</i>
   <i type="int" name="NBLOCK">     1</i>
   <i type="int" name="KBLOCK">   300</i>
   <i type="int" name="NPACO">   256</i>
   <i name="APACO">     10.00000000</i>
  </separator>
  <separator name="symmetry" >
   <i type="int" name="ISYM">     2</i>
   <i name="SYMPREC">      0.00001000</i>
  </separator>
  <separator name="dos" >
   <i type="int" name="LORBIT">     0</i>
   <v name="RWIGS">     -1.00000000     -1.00000000</v>
   <i type="int" name="NEDOS">   301</i>
   <i name="EMIN">     10.00000000</i>
   <i name="EMAX">    -10.00000000</i>
   <i name="EFERMI">      0.00000000</i>
  </separator>
  <separator name="writing" >
   <i type="int" name="NWRITE">     2</i>
   <i type="logical" name="LWAVE"> F  </i>
   <i type="logical" name="LDOWNSAMPLE"> F  </i>
   <i type="logical" name="LCHARG"> F  </i>
   <i type="logical" name="LPARD"> F  </i>
   <i type="logical" name="LVTOT"> F  </i>
   <i type="logical" name="LVHAR"> F  </i>
   <i type="logical" name="LELF"> F  </i>
   <i type="logical" name="LOPTICS"> F  </i>
   <v name="STM">      0.00000000      0.00000000      0.00000000      0.00000000      0.00000000      0.00000000      0.00000000</v>
  </separator>
  <separator name="performance" >
   <i type="int" name="NPAR">     1</i>
   <i type="int" name="NSIM">     4</i>
   <i type="int" name="NBLK">    -1</i>
   <i type="logical" name="LPLANE"> T  </i>
   <i type="logical" name="LSCALAPACK"> T  </i>
   <i type="logical" name="LSCAAWARE"> F  </i>
   <i type="logical" name="LSCALU"> F  </i>
   <i type="logical" name="LASYNC"> F  </i>
   <i type="logical" name="LORBITALREAL"> F  </i>
  </separator>
  <separator name="miscellaneous" >
   <i type="int" name="IDIOT">     3</i>
   <i type="int" name="PHON_NSTRUCT">    -1</i>
   <i type="logical" name="LMUSIC"> F  </i>
   <v name="POMASS">     55.84700000     51.99600000</v>
   <v name="DARWINR">      0.00000000      0.00000000</v>
   <v name="DARWINV">      1.00000000      1.00000000</v>
   <i type="logical" name="LCORR"> T  </i>
  </separator>
  <i type="logical" name="GGA_COMPAT"> T  </i>
  <i type="logical" name="LBERRY"> F  </i>
  <i type="int" name="ICORELEVEL">     0</i>
  <i type="logical" name="LDAU"> F  </i>
  <i type="int" name="I_CONSTRAINED_M">     0</i>
  <separator name="electronic exchange-correlation" >
   <i type="string" name="GGA">--</i>
   <i type="int" name="VOSKOWN">     0</i>
   <i type="logical" name="LHFCALC"> F  </i>
   <i type="string" name="PRECFOCK"></i>
   <i type="logical" name="LSYMGRAD"> F  </i>
   <i type="logical" name="LHFONE"> F  </i>
   <i type="logical" name="LRHFCALC"> F  </i>
   <i type="logical" name="LTHOMAS"> F  </i>
   <i type="logical" name="LMODELHF"> F  </i>
   <i type="logical" name="LFOCKACE"> F  </i>
   <i name="ENCUT4O">     -1.00000000</i>
   <i type="int" name="EXXOEP">     0</i>
   <i type="int" name="FOURORBIT">     0</i>
   <i name="AEXX">      0.00000000</i>
   <i name="HFALPHA">      0.00000000</i>
   <i name="MCALPHA">      0.00000000</i>
   <i name="ALDAX">      1.00000000</i>
   <i name="AGGAX">      1.00000000</i>
   <i name="ALDAC">      1.00000000</i>
   <i name="AGGAC">      1.00000000</i>
   <i type="int" name="NKREDX">     1</i>
   <i type="int" name="NKREDY">     1</i>
   <i type="int" name="NKREDZ">     1</i>
   <i type="logical" name="SHIFTRED"> F  </i>
   <i type="logical" name="ODDONLY"> F  </i>
   <i type="logical" name="EVENONLY"> F  </i>
   <i type="int" name="LMAXFOCK">     0</i>
   <i type="int" name="NMAXFOCKAE">     0</i>
   <i type="logical" name="LFOCKAEDFT"> F  </i>
   <i name="HFSCREEN">      0.00000000</i>
   <i name="HFSCREENC">      0.00000000</i>
   <i type="int" name="NBANDSGWLOW">     0</i>
  </separator>
  <separator name="vdW DFT" >
   <i type="logical" name="LUSE_VDW"> F  </i>
   <i name="Zab_VDW">     -0.84910000</i>
   <i name="PARAM1">      0.12340000</i>
   <i name="PARAM2">      1.00000000</i>
   <i name="PARAM3">      0.00000000</i>
  </separator>
  <separator name="model GW" >
   <i type="int" name="MODEL_GW">     0</i>
   <i name="MODEL_EPS0">     16.55509166</i>
   <i name="MODEL_ALPHA">      1.00000000</i>
  </separator>
  <separator name="linear response parameters" >
   <i type="logical" name="LEPSILON"> F  </i>
   <i type="logical" name="LRPA"> F  </i>
   <i type="logical" name="LNABLA"> F  </i>
   <i type="logical" name="LVEL"> F  </i>
   <i name="CSHIFT">      0.10000000</i>
   <i name="OMEGAMAX">     -1.00000000</i>
   <i name="DEG_THRESHOLD">      0.00200000</i>
   <i name="RTIME">     -0.10000000</i>
   <i name="WPLASMAI">      0.00000000</i>
   <v name="DFIELD">      0.00000000      0.00000000      0.00000000</v>
   <v name="WPLASMA">      0.00000000      0.00000000      0.00000000      0.00000000      0.00000000      0.00000000      0.00000000      0.00000000      0.00000000</v>
  </separator>
  <separator name="orbital magnetization" >
   <i type="logical" name="NUCIND"> F  </i>
   <v name="MAGPOS">      0.00000000      0.00000000      0.00000000</v>
   <i type="logical" name="LNICSALL"> T  </i>
   <i type="logical" name="ORBITALMAG"> F  </i>
   <i type="logical" name="LMAGBLOCH"> F  </i>
   <i type="logical" name="LCHIMAG"> F  </i>
   <i type="logical" name="LGAUGE"> T  </i>
   <i type="int" name="MAGATOM">     0</i>
   <v name="MAGDIPOL">      0.00000000      0.00000000      0.00000000</v>
   <v name="AVECCONST">      0.00000000      0.00000000      0.00000000</v>
  </separator>
  <separator name="response functions" >
   <i type="logical" name="LFINITE_TEMPERATURE"> F  </i>
   <i type="logical" name="LADDER"> F  </i>
   <i type="logical" name="LRPAFORCE"> F  </i>
   <i type="logical" name="LFXC"> F  </i>
   <i type="logical" name="LHARTREE"> T  </i>
   <i type="int" name="IBSE">     0</i>
   <v type="int" name="KPOINT">    -1     0     0     0</v>
   <i type="logical" name="LTCTC"> F  </i>
   <i type="logical" name="LTCTE"> F  </i>
   <i type="logical" name="LTETE"> F  </i>
   <i type="logical" name="LTRIPLET"> F  </i>
   <i type="logical" name="LFXCEPS"> F  </i>
   <i type="logical" name="LFXHEG"> F  </i>
   <i type="int" name="NATURALO">     2</i>
   <i type="logical" name="LHOLEGF"> F  </i>
   <i type="logical" name="L2ORDER"> F  </i>
   <i type="logical" name="LDMP1"> F  </i>
   <i type="logical" name="LMP2LT"> F  </i>
   <i type="logical" name="LSMP2LT"> F  </i>
   <i type="logical" name="LGWLF"> F  </i>
   <i name="ENCUTGW">     -2.00000000</i>
   <i name="ENCUTGWSOFT">     -2.00000000</i>
   <i name="ENCUTLF">     -1.00000000</i>
   <i type="logical" name="LESF_SPLINES"> F  </i>
   <i type="int" name="LMAXMP2">    -1</i>
   <i name="SCISSOR">      0.00000000</i>
   <i type="int" name="NOMEGA">     0</i>
   <i type="int" name="NOMEGAR">     0</i>
   <i type="int" name="NBANDSGW">    -1</i>
   <i type="int" name="NBANDSO">    -1</i>
   <i type="int" name="NBANDSV">    -1</i>
   <i type="int" name="NELMGW">     1</i>
   <i type="int" name="NELMHF">     1</i>
   <i type="int" name="DIM">     3</i>
   <i type="int" name="IESPILON">     4</i>
   <i type="int" name="ANTIRES">     0</i>
   <i name="OMEGAMAX">    -30.00000000</i>
   <i name="OMEGAMIN">    -30.00000000</i>
   <i name="OMEGATL">   -200.00000000</i>
   <i type="int" name="OMEGAGRID">     0</i>
   <i name="CSHIFT">     -0.10000000</i>
   <i type="logical" name="LSELFENERGY"> F  </i>
   <i type="logical" name="LSPECTRAL"> F  </i>
   <i type="logical" name="LSPECTRALGW"> F  </i>
   <i type="logical" name="LSINGLES"> F  </i>
   <i type="logical" name="LFERMIGW"> F  </i>
   <i type="logical" name="ODDONLYGW"> F  </i>
   <i type="logical" name="EVENONLYGW"> F  </i>
   <i type="int" name="NKREDLFX">     1</i>
   <i type="int" name="NKREDLFY">     1</i>
   <i type="int" name="NKREDLFZ">     1</i>
   <i type="int" name="MAXMEM">  2800</i>
   <i type="int" name="TELESCOPE">     0</i>
   <i type="int" name="NTAUPAR">    -1</i>
   <i type="int" name="NOMEGAPAR">    -1</i>
   <i name="DAMP_NEWTON">      0.80000001</i>
   <i name="LAMBDA">      1.00000000</i>
  </separator>
  <separator name="External order field" >
   <i name="OFIELD_KAPPA">      0.00000000</i>
   <v name="OFIELD_K">      0.00000000      0.00000000      0.00000000</v>
   <i name="OFIELD_Q6_NEAR">      0.00000000</i>
   <i name="OFIELD_Q6_FAR">      0.00000000</i>
   <i name="OFIELD_A">      0.00000000</i>
  </separator>
  <separator name="optional k-points parameters" >
   <i type="int" name="KPOINTS_OPT_MODE">     1</i>
   <i type="logical" name="LKPOINTS_OPT"> F  </i>
  </separator>
  <separator name="solvation model" >
   <i type="logical" name="LSOL"> F  </i>
  </separator>
 </parameters>
 <atominfo>
  <atoms>      62 </atoms>
  <types>       2 </types>
  <array name="atoms" >
   <dimension dim="1">ion</dimension>
   <field type="string">element</field>
   <field type="int">atomtype</field>
   <set>
    <rc><c>Fe</c><c>   1</c></rc>
    <rc><c>Fe</c><c>   1</c></rc>
    <rc><c>Fe</c><c>   1</c></rc>
    <rc><c>Fe</c><c>   1</c></rc>
    <rc><c>Fe</c><c>   1</c></rc>
    <rc><c>Fe</c><c>   1</c></rc>
    <rc><c>Fe</c><c>   1</c></rc>
    <rc><c>Fe</c><c>   1</c></rc>
    <rc><c>Fe</c><c>   1</c></rc>
    <rc><c>Fe</c><c>   1</c></rc>
    <rc><c>Fe</c><c>   1</c></rc>
    <rc><c>Fe</c><c>   1</c></rc>
    <rc><c>Fe</c><c>   1</c></rc>
    <rc><c>Fe</c><c>   1</c></rc>
    <rc><c>Fe</c><c>   1</c></rc>
    <rc><c>Fe</c><c>   1</c></rc>
    <rc><c>Fe</c><c>   1</c></rc>
    <rc><c>Fe</c><c>   1</c></rc>
    <rc><c>Fe</c><c>   1</c></rc>
    <rc><c>Fe</c><c>   1</c></rc>
    <rc><c>Fe</c><c>   1</c></rc>
    <rc><c>Fe</c><c>   1</c></rc>
    <rc><c>Fe</c><c>   1</c></rc>
    <rc><c>Fe</c><c>   1</c></rc>
    <rc><c>Fe</c><c>   1</c></rc>
    <rc><c>Fe</c><c>   1</c></rc>
    <rc><c>Fe</c><c>   1</c></rc>
    <rc><c>Fe</c><c>   1</c></rc>
    <rc><c>Fe</c><c>   1</c></rc>
    <rc><c>Fe</c><c>   1</c></rc>
    <rc><c>Fe</c><c>   1</c></rc>
    <rc><c>Fe</c><c>   1</c></rc>
    <rc><c>Fe</c><c>   1</c></rc>
    <rc><c>Fe</c><c>   1</c></rc>
    <rc><c>Fe</c><c>   1</c></rc>
    <rc><c>Fe</c><c>   1</c></rc>
    <rc><c>Fe</c><c>   1</c></rc>
    <rc><c>Fe</c><c>   1</c></rc>
    <rc><c>Fe</c><c>   1</c></rc>
    <rc><c>Fe</c><c>   1</c></rc>
    <rc><c>Fe</c><c>   1</c></rc>
    <rc><c>Fe</c><c>   1</c></rc>
    <rc><c>Fe</c><c>   1</c></rc>
    <rc><c>Fe</c><c>   1</c></rc>
    <rc><c>Fe</c><c>   1</c></rc>
    <rc><c>Fe</c><c>   1</c></rc>
    <rc><c>Fe</c><c>   1</c></rc>
    <rc><c>Fe</c><c>   1</c></rc>
    <rc><c>Cr</c><c>   2</c></rc>
    <rc><c>Cr</c><c>   2</c></rc>
    <rc><c>Cr</c><c>   2</c></rc>
    <rc><c>Cr</c><c>   2</c></rc>
    <rc><c>Cr</c><c>   2</c></rc>
    <rc><c>Cr</c><c>   2</c></rc>
    <rc><c>Cr</c><c>   2</c></rc>
    <rc><c>Cr</c><c>   2</c></rc>
    <rc><c>Cr</c><c>   2</c></rc>
    <rc><c>Cr</c><c>   2</c></rc>
    <rc><c>Cr</c><c>   2</c></rc>
    <rc><c>Cr</c><c>   2</c></rc>
    <rc><c>Cr</c><c>   2</c></rc>
    <rc><c>Cr</c><c>   2</c></rc>
   </set>
  </array>
  <array name="atomtypes" >
   <dimension dim="1">type</dimension>
   <field type="int">atomspertype</field>
   <field type="string">element</field>
   <field>mass</field>
   <field>valence</field>
   <field type="string">pseudopotential</field>
   <set>
    <rc><c>  48</c><c>Fe</c><c>     55.84700000</c><c>      8.00000000</c><c>  PAW_PBE Fe 06Sep2000                  </c></rc>
    <rc><c>  14</c><c>Cr</c><c>     51.99600000</c><c>     12.00000000</c><c>  PAW_PBE Cr_pv 02Aug2007               </c></rc>
   </set>
  </array>
 </atominfo>
 <structure name="initialpos" >
  <crystal>
   <varray name="basis" >
    <v>       8.53269958       0.00000000       0.00000000 </v>
    <v>      -0.00051933       8.49699972       0.00000000 </v>
    <v>       0.00000000       0.00000000      23.59499931 </v>
   </varray>
   <i name="volume">   1710.69280467 </i>
   <varray name="rec_basis" >
    <v>       0.11719620       0.00000716       0.00000000 </v>
    <v>       0.00000000       0.11768860       0.00000000 </v>
    <v>       0.00000000       0.00000000       0.04238186 </v>
   </varray>
  </crystal>
  <varray name="positions" >
   <v>       0.00086000       0.99993000       0.24271000 </v>
   <v>       0.16537838       0.16585743       0.30249319 </v>
   <v>       0.49960507       0.16104418       0.30054117 </v>
   <v>       0.66822000       0.00107000       0.24272000 </v>
   <v>       0.83595696       0.16690958       0.30192544 </v>
   <v>       0.00044000       0.33497000       0.24240000 </v>
   <v>       0.16994616       0.50377794       0.30381005 </v>
   <v>       0.33469000       0.33305000       0.24267000 </v>
   <v>       0.49849340       0.50743122       0.30242479 </v>
   <v>       0.83322799       0.49954466       0.30177594 </v>
   <v>       0.16969753       0.83236280       0.30428057 </v>
   <v>       0.33342000       0.66555000       0.24261000 </v>
   <v>       0.83612876       0.83367166       0.30192023 </v>
   <v>       0.00064000       0.00119000       0.00199000 </v>
   <v>       0.00238511       0.00112389       0.36034613 </v>
   <v>       0.16843000       0.16962000       0.06269000 </v>
   <v>       0.33460000       0.00297000       0.00254000 </v>
   <v>       0.33333057       0.01005393       0.36211451 </v>
   <v>       0.50463000       0.16850000       0.06120000 </v>
   <v>       0.83272000       0.16670000       0.06193000 </v>
   <v>       0.00004000       0.33467000       0.00213000 </v>
   <v>       0.00294303       0.33411725       0.35939893 </v>
   <v>       0.16757000       0.49895000       0.06268000 </v>
   <v>       0.50099000       0.49896000       0.06206000 </v>
   <v>       0.83393000       0.50234000       0.06235000 </v>
   <v>       0.00121000       0.66785000       0.00188000 </v>
   <v>       0.99300872       0.66422936       0.36049002 </v>
   <v>       0.16792000       0.83462000       0.06228000 </v>
   <v>       0.33437000       0.66664000       0.00225000 </v>
   <v>       0.50152000       0.83563000       0.06217000 </v>
   <v>       0.66753000       0.66705000       0.00175000 </v>
   <v>       0.66834250       0.66597200       0.35916774 </v>
   <v>       0.83293000       0.83584000       0.06235000 </v>
   <v>       0.00121000       0.00098000       0.12225000 </v>
   <v>       0.16700000       0.16811000       0.18239000 </v>
   <v>       0.33470000       0.00227000       0.12192000 </v>
   <v>       0.50174000       0.16716000       0.18263000 </v>
   <v>       0.83421000       0.16639000       0.18283000 </v>
   <v>       0.16964000       0.49868000       0.18209000 </v>
   <v>       0.50219000       0.50081000       0.18317000 </v>
   <v>       0.66741000       0.33395000       0.12233000 </v>
   <v>       0.83134000       0.50253000       0.18283000 </v>
   <v>       0.00132000       0.66795000       0.12253000 </v>
   <v>       0.16898000       0.83509000       0.18243000 </v>
   <v>       0.33446000       0.66703000       0.12223000 </v>
   <v>       0.49971000       0.83538000       0.18278000 </v>
   <v>       0.66698000       0.66840000       0.12259000 </v>
   <v>       0.83488000       0.83403000       0.18294000 </v>
   <v>       0.33558000       0.99863000       0.24353000 </v>
   <v>       0.66801000       0.33262000       0.24229000 </v>
   <v>       0.00448000       0.66739000       0.24217000 </v>
   <v>       0.49679050       0.83508720       0.30340677 </v>
   <v>       0.66521000       0.67351000       0.24327000 </v>
   <v>       0.66620000       0.99680000       0.00000000 </v>
   <v>       0.65770617       0.99707992       0.36490022 </v>
   <v>       0.33213000       0.33386000       0.00135000 </v>
   <v>       0.34225976       0.32791790       0.36220402 </v>
   <v>       0.67040000       0.33673000       0.00321000 </v>
   <v>       0.65881568       0.33045147       0.36734064 </v>
   <v>       0.66728000       0.99998000       0.12246000 </v>
   <v>       0.99806000       0.33495000       0.12235000 </v>
   <v>       0.33675000       0.33238000       0.12261000 </v>
  </varray>
  <varray name="selective"  type="logical" >
   <v type="logical" >  F  F  F </v>
   <v type="logical" >  T  T  T </v>
   <v type="logical" >  T  T  T </v>
   <v type="logical" >  F  F  F </v>
   <v type="logical" >  T  T  T </v>
   <v type="logical" >  F  F  F </v>
   <v type="logical" >  T  T  T </v>
   <v type="logical" >  F  F  F </v>
   <v type="logical" >  T  T  T </v>
   <v type="logical" >  T  T  T </v>
   <v type="logical" >  T  T  T </v>
   <v type="logical" >  F  F  F </v>
   <v type="logical" >  T  T  T </v>
   <v type="logical" >  F  F  F </v>
   <v type="logical" >  T  T  T </v>
   <v type="logical" >  F  F  F </v>
   <v type="logical" >  F  F  F </v>
   <v type="logical" >  T  T  T </v>
   <v type="logical" >  F  F  F </v>
   <v type="logical" >  F  F  F </v>
   <v type="logical" >  F  F  F </v>
   <v type="logical" >  T  T  T </v>
   <v type="logical" >  F  F  F </v>
   <v type="logical" >  F  F  F </v>
   <v type="logical" >  F  F  F </v>
   <v type="logical" >  F  F  F </v>
   <v type="logical" >  T  T  T </v>
   <v type="logical" >  F  F  F </v>
   <v type="logical" >  F  F  F </v>
   <v type="logical" >  F  F  F </v>
   <v type="logical" >  F  F  F </v>
   <v type="logical" >  T  T  T </v>
   <v type="logical" >  F  F  F </v>
   <v type="logical" >  F  F  F </v>
   <v type="logical" >  F  F  F </v>
   <v type="logical" >  F  F  F </v>
   <v type="logical" >  F  F  F </v>
   <v type="logical" >  F  F  F </v>
   <v type="logical" >  F  F  F </v>
   <v type="logical" >  F  F  F </v>
   <v type="logical" >  F  F  F </v>
   <v type="logical" >  F  F  F </v>
   <v type="logical" >  F  F  F </v>
   <v type="logical" >  F  F  F </v>
   <v type="logical" >  F  F  F </v>
   <v type="logical" >  F  F  F </v>
   <v type="logical" >  F  F  F </v>
   <v type="logical" >  F  F  F </v>
   <v type="logical" >  F  F  F </v>
   <v type="logical" >  F  F  F </v>
   <v type="logical" >  F  F  F </v>
   <v type="logical" >  T  T  T </v>
   <v type="logical" >  F  F  F </v>
   <v type="logical" >  F  F  F </v>
   <v type="logical" >  T  T  T </v>
   <v type="logical" >  F  F  F </v>
   <v type="logical" >  T  T  T </v>
   <v type="logical" >  F  F  F </v>
   <v type="logical" >  T  T  T </v>
   <v type="logical" >  F  F  F </v>
   <v type="logical" >  F  F  F </v>
   <v type="logical" >  F  F  F </v>
  </varray>
  <nose>
   <v>      -3.00000000       0.00000000       0.00010000       0.00010000 </v>
  </nose>
 </structure>
 <calculation>
  <scstep>
   <time name="dav">  120.28   17.33</time>
   <time name="total">  141.34   22.79</time>
   <dipole>
    <v name="dipole">      0.00000000       0.00000000       0.00004853 </v>
    <i name="Tr[quadrupol]">  -6867.41386263 </i>
    <i name="Echarged">      0.00000000 </i>
    <i name="Edipol_quadrupol">      0.00000000 </i>
    <i name="Eion">      0.00000000 </i>
   </dipole>
   <energy>
    <i name="alphaZ">   1731.60713305 </i>
    <i name="ewald"> 210045.03149604 </i>
    <i name="hartreedc">-259489.36258857 </i>
    <i name="XCdc">    955.77868983 </i>
    <i name="pawpsdc">  44929.80271308 </i>
    <i name="pawaedc"> -45977.20384656 </i>
    <i name="eentropy">      0.00675297 </i>
    <i name="bandstr">   1562.48190502 </i>
    <i name="atom">  51597.65971741 </i>
    <i name="e_fr_energy">   5355.80197226 </i>
    <i name="e_wo_entrp">   5355.79521929 </i>
    <i name="e_0_energy">   5355.79972127 </i>
   </energy>
  </scstep>
  <scstep>
   <time name="dav">  115.52   16.60</time>
   <time name="total">  115.58   16.61</time>
   <dipole>
    <v name="dipole">      0.00000000       0.00000000       0.00004853 </v>
    <i name="Tr[quadrupol]">  -6867.41386263 </i>
    <i name="Echarged">      0.00000000 </i>
    <i name="Edipol_quadrupol">      0.00000000 </i>
    <i name="Eion">      0.00000000 </i>
   </dipole>
   <energy>
    <i name="e_fr_energy">    -98.43279691 </i>
    <i name="e_wo_entrp">    -98.42933099 </i>
    <i name="e_0_energy">    -98.43164160 </i>
   </energy>
  </scstep>
  <scstep>
   <time name="dav">  120.05   17.23</time>
   <time name="total">  120.11   17.23</time>
   <dipole>
    <v name="dipole">      0.00000000       0.00000000       0.00004853 </v>
    <i name="Tr[quadrupol]">  -6867.41386263 </i>
    <i name="Echarged">      0.00000000 </i>
    <i name="Edipol_quadrupol">      0.00000000 </i>
    <i name="Eion">      0.00000000 </i>
   </dipole>
   <energy>
    <i name="e_fr_energy">   -519.94221503 </i>
    <i name="e_wo_entrp">   -519.92239230 </i>
    <i name="e_0_energy">   -519.93560746 </i>
   </energy>
  </scstep>
  <scstep>
   <time name="dav">  183.65   26.29</time>
   <time name="total">  183.71   26.30</time>
   <dipole>
    <v name="dipole">      0.00000000       0.00000000       0.00004853 </v>
    <i name="Tr[quadrupol]">  -6867.41386263 </i>
    <i name="Echarged">      0.00000000 </i>
    <i name="Edipol_quadrupol">      0.00000000 </i>
    <i name="Eion">      0.00000000 </i>
   </dipole>
   <energy>
    <i name="e_fr_energy">   -576.52467530 </i>
    <i name="e_wo_entrp">   -576.52643084 </i>
    <i name="e_0_energy">   -576.52526048 </i>
   </energy>
  </scstep>
  <scstep>
   <time name="dav">  170.00   24.60</time>
   <time name="total">  174.35   25.52</time>
   <dipole>
    <v name="dipole">      0.00000000       0.00000000       0.00004853 </v>
    <i name="Tr[quadrupol]">  -6867.41386263 </i>
    <i name="Echarged">      0.00000000 </i>
    <i name="Edipol_quadrupol">      0.00000000 </i>
    <i name="Eion">      0.00000000 </i>
   </dipole>
   <energy>
    <i name="e_fr_energy">   -579.72404315 </i>
    <i name="e_wo_entrp">   -579.72964357 </i>
    <i name="e_0_energy">   -579.72590996 </i>
   </energy>
  </scstep>
  <scstep>
   <time name="dav">  187.19   26.86</time>
   <time name="total">  211.50   33.16</time>
   <dipole>
    <v name="dipole">      0.00000000       0.00000000       0.75251817 </v>
    <i name="Tr[quadrupol]">  -6891.78133747 </i>
    <i name="Echarged">      0.00000000 </i>
    <i name="Edipol_quadrupol">      0.00000000 </i>
    <i name="Eion">      0.00000000 </i>
   </dipole>
   <energy>
    <i name="e_fr_energy">   -685.95309851 </i>
    <i name="e_wo_entrp">   -685.92615652 </i>
    <i name="e_0_energy">   -685.94411785 </i>
   </energy>
  </scstep>
  <scstep>
   <time name="dav">  188.92   27.04</time>
   <time name="total">  213.93   33.33</time>
   <dipole>
    <v name="dipole">      0.00000000       0.00000000      -1.12437379 </v>
    <i name="Tr[quadrupol]">  -6877.56635043 </i>
    <i name="Echarged">      0.00000000 </i>
    <i name="Edipol_quadrupol">      0.00000000 </i>
    <i name="Eion">      0.00000000 </i>
   </dipole>
   <energy>
    <i name="e_fr_energy">   -608.91947762 </i>
    <i name="e_wo_entrp">   -608.92065461 </i>
    <i name="e_0_energy">   -608.91986995 </i>
   </energy>
  </scstep>
  <scstep>
   <time name="dav">  187.13   26.87</time>
   <time name="total">  212.31   33.16</time>
   <dipole>
    <v name="dipole">      0.00000000       0.00000000       0.60097952 </v>
    <i name="Tr[quadrupol]">  -6876.66146481 </i>
    <i name="Echarged">      0.00000000 </i>
    <i name="Edipol_quadrupol">      0.00000000 </i>
    <i name="Eion">      0.00000000 </i>
   </dipole>
   <energy>
    <i name="e_fr_energy">   -554.45791508 </i>
    <i name="e_wo_entrp">   -554.44717787 </i>
    <i name="e_0_energy">   -554.45433601 </i>
   </energy>
  </scstep>
  <scstep>
   <time name="dav">  176.68   25.45</time>
   <time name="total">  202.63   31.89</time>
   <dipole>
    <v name="dipole">      0.00000000       0.00000000      -0.11755666 </v>
    <i name="Tr[quadrupol]">  -6877.00629593 </i>
    <i name="Echarged">      0.00000000 </i>
    <i name="Edipol_quadrupol">      0.00000000 </i>
    <i name="Eion">      0.00000000 </i>
   </dipole>
   <energy>
    <i name="e_fr_energy">   -523.40533243 </i>
    <i name="e_wo_entrp">   -523.41329194 </i>
    <i name="e_0_energy">   -523.40798560 </i>
   </energy>
  </scstep>
  <scstep>
   <time name="dav">  168.86   24.23</time>
   <time name="total">  193.65   30.56</time>
   <dipole>
    <v name="dipole">      0.00000000       0.00000000       0.04077361 </v>
    <i name="Tr[quadrupol]">  -6878.80304323 </i>
    <i name="Echarged">      0.00000000 </i>
    <i name="Edipol_quadrupol">      0.00000000 </i>
    <i name="Eion">      0.00000000 </i>
   </dipole>
   <energy>
    <i name="e_fr_energy">   -503.00864317 </i>
    <i name="e_wo_entrp">   -503.00217693 </i>
    <i name="e_0_energy">   -503.00648776 </i>
   </energy>
  </scstep>
  <scstep>
   <time name="dav">  152.76   21.93</time>
   <time name="total">  177.54   28.30</time>
   <dipole>
    <v name="dipole">      0.00000000       0.00000000      -0.01409931 </v>
    <i name="Tr[quadrupol]">  -6883.84259982 </i>
    <i name="Echarged">      0.00000000 </i>
    <i name="Edipol_quadrupol">      0.00000000 </i>
    <i name="Eion">      0.00000000 </i>
   </dipole>
   <energy>
    <i name="e_fr_energy">   -490.02053948 </i>
    <i name="e_wo_entrp">   -490.02365363 </i>
    <i name="e_0_energy">   -490.02157753 </i>
   </energy>
  </scstep>
  <scstep>
   <time name="dav">  156.50   22.46</time>
   <time name="total">  181.49   28.78</time>
   <dipole>
    <v name="dipole">      0.00000000       0.00000000      -0.02926611 </v>
    <i name="Tr[quadrupol]">  -6887.52637863 </i>
    <i name="Echarged">      0.00000000 </i>
    <i name="Edipol_quadrupol">      0.00000000 </i>
    <i name="Eion">      0.00000000 </i>
   </dipole>
   <energy>
    <i name="e_fr_energy">   -487.01546278 </i>
    <i name="e_wo_entrp">   -487.03065208 </i>
    <i name="e_0_energy">   -487.02052588 </i>
   </energy>
  </scstep>
  <scstep>
   <time name="dav">  154.50   22.37</time>
   <time name="total">  179.16   28.73</time>
   <dipole>
    <v name="dipole">      0.00000000       0.00000000       0.06740130 </v>
    <i name="Tr[quadrupol]">  -6888.75948375 </i>
    <i name="Echarged">      0.00000000 </i>
    <i name="Edipol_quadrupol">      0.00000000 </i>
    <i name="Eion">      0.00000000 </i>
   </dipole>
   <energy>
    <i name="e_fr_energy">   -487.68105519 </i>
    <i name="e_wo_entrp">   -487.69920510 </i>
    <i name="e_0_energy">   -487.68710516 </i>
   </energy>
  </scstep>
  <scstep>
   <time name="dav">  139.39   20.13</time>
   <time name="total">  164.32   26.53</time>
   <dipole>
    <v name="dipole">      0.00000000       0.00000000       0.06143657 </v>
    <i name="Tr[quadrupol]">  -6888.89105972 </i>
    <i name="Echarged">      0.00000000 </i>
    <i name="Edipol_quadrupol">      0.00000000 </i>
    <i name="Eion">      0.00000000 </i>
   </dipole>
   <energy>
    <i name="e_fr_energy">   -487.80901197 </i>
    <i name="e_wo_entrp">   -487.82716807 </i>
    <i name="e_0_energy">   -487.81506400 </i>
   </energy>
  </scstep>
  <scstep>
   <time name="dav">  187.95   27.03</time>
   <time name="total">  213.43   33.37</time>
   <dipole>
    <v name="dipole">      0.00000000       0.00000000       0.07344863 </v>
    <i name="Tr[quadrupol]">  -6888.81029442 </i>
    <i name="Echarged">      0.00000000 </i>
    <i name="Edipol_quadrupol">      0.00000000 </i>
    <i name="Eion">      0.00000000 </i>
   </dipole>
   <energy>
    <i name="e_fr_energy">   -487.69883235 </i>
    <i name="e_wo_entrp">   -487.71583331 </i>
    <i name="e_0_energy">   -487.70449934 </i>
   </energy>
  </scstep>
  <scstep>
   <time name="dav">  183.96   26.38</time>
   <time name="total">  209.55   32.74</time>
   <dipole>
    <v name="dipole">      0.00000000       0.00000000       0.01920062 </v>
    <i name="Tr[quadrupol]">  -6889.96036775 </i>
    <i name="Echarged">      0.00000000 </i>
    <i name="Edipol_quadrupol">      0.00000000 </i>
    <i name="Eion">      0.00000000 </i>
   </dipole>
   <energy>
    <i name="e_fr_energy">   -489.20803561 </i>
    <i name="e_wo_entrp">   -489.21969359 </i>
    <i name="e_0_energy">   -489.21192161 </i>
   </energy>
  </scstep>
  <scstep>
   <time name="dav">  175.37   25.14</time>
   <time name="total">  200.90   31.49</time>
   <dipole>
    <v name="dipole">      0.00000000       0.00000000       0.00991198 </v>
    <i name="Tr[quadrupol]">  -6893.64443032 </i>
    <i name="Echarged">      0.00000000 </i>
    <i name="Edipol_quadrupol">      0.00000000 </i>
    <i name="Eion">      0.00000000 </i>
   </dipole>
   <energy>
    <i name="e_fr_energy">   -493.76473050 </i>
    <i name="e_wo_entrp">   -493.75681770 </i>
    <i name="e_0_energy">   -493.76209290 </i>
   </energy>
  </scstep>
  <scstep>
   <time name="dav">  178.22   25.52</time>
   <time name="total">  203.78   31.88</time>
   <dipole>
    <v name="dipole">      0.00000000       0.00000000       0.08517017 </v>
    <i name="Tr[quadrupol]">  -6896.15207406 </i>
    <i name="Echarged">      0.00000000 </i>
    <i name="Edipol_quadrupol">      0.00000000 </i>
    <i name="Eion">      0.00000000 </i>
   </dipole>
   <energy>
    <i name="e_fr_energy">   -496.76903974 </i>
    <i name="e_wo_entrp">   -496.76580680 </i>
    <i name="e_0_energy">   -496.76796209 </i>
   </energy>
  </scstep>
  <scstep>
   <time name="dav">  177.03   25.35</time>
   <time name="total">  202.10   31.72</time>
   <dipole>
    <v name="dipole">      0.00000000       0.00000000      -0.00668522 </v>
    <i name="Tr[quadrupol]">  -6897.22292961 </i>
    <i name="Echarged">      0.00000000 </i>
    <i name="Edipol_quadrupol">      0.00000000 </i>
    <i name="Eion">      0.00000000 </i>
   </dipole>
   <energy>
    <i name="e_fr_energy">   -496.89054008 </i>
    <i name="e_wo_entrp">   -496.90858697 </i>
    <i name="e_0_energy">   -496.89655571 </i>
   </energy>
  </scstep>
  <scstep>
   <time name="dav">  169.55   24.41</time>
   <time name="total">  195.89   30.87</time>
   <dipole>
    <v name="dipole">      0.00000000       0.00000000       0.07165550 </v>
    <i name="Tr[quadrupol]">  -6897.52718254 </i>
    <i name="Echarged">      0.00000000 </i>
    <i name="Edipol_quadrupol">      0.00000000 </i>
    <i name="Eion">      0.00000000 </i>
   </dipole>
   <energy>
    <i name="e_fr_energy">   -497.22816759 </i>
    <i name="e_wo_entrp">   -497.25473807 </i>
    <i name="e_0_energy">   -497.23702442 </i>
   </energy>
  </scstep>
  <scstep>
   <time name="dav">  169.68   24.34</time>
   <time name="total">  195.39   30.71</time>
   <dipole>
    <v name="dipole">      0.00000000       0.00000000       0.07606737 </v>
    <i name="Tr[quadrupol]">  -6897.73428329 </i>
    <i name="Echarged">      0.00000000 </i>
    <i name="Edipol_quadrupol">      0.00000000 </i>
    <i name="Eion">      0.00000000 </i>
   </dipole>
   <energy>
    <i name="e_fr_energy">   -497.58110198 </i>
    <i name="e_wo_entrp">   -497.60959229 </i>
    <i name="e_0_energy">   -497.59059875 </i>
   </energy>
  </scstep>
  <scstep>
   <time name="dav">  183.11   26.24</time>
   <time name="total">  208.85   32.62</time>
   <dipole>
    <v name="dipole">      0.00000000       0.00000000       0.07302059 </v>
    <i name="Tr[quadrupol]">  -6897.98172451 </i>
    <i name="Echarged">      0.00000000 </i>
    <i name="Edipol_quadrupol">      0.00000000 </i>
    <i name="Eion">      0.00000000 </i>
   </dipole>
   <energy>
    <i name="e_fr_energy">   -498.27087665 </i>
    <i name="e_wo_entrp">   -498.31677690 </i>
    <i name="e_0_energy">   -498.28617673 </i>
   </energy>
  </scstep>
  <scstep>
   <time name="dav">  185.43   26.57</time>
   <time name="total">  210.80   32.96</time>
   <dipole>
    <v name="dipole">      0.00000000       0.00000000       0.06563596 </v>
    <i name="Tr[quadrupol]">  -6897.14424668 </i>
    <i name="Echarged">      0.00000000 </i>
    <i name="Edipol_quadrupol">      0.00000000 </i>
    <i name="Eion">      0.00000000 </i>
   </dipole>
   <energy>
    <i name="e_fr_energy">   -498.50607462 </i>
    <i name="e_wo_entrp">   -498.55491715 </i>
    <i name="e_0_energy">   -498.52235546 </i>
   </energy>
  </scstep>
  <scstep>
   <time name="dav">  184.03   26.54</time>
   <time name="total">  209.78   32.93</time>
   <dipole>
    <v name="dipole">      0.00000000       0.00000000       0.03084688 </v>
    <i name="Tr[quadrupol]">  -6896.98029672 </i>
    <i name="Echarged">      0.00000000 </i>
    <i name="Edipol_quadrupol">      0.00000000 </i>
    <i name="Eion">      0.00000000 </i>
   </dipole>
   <energy>
    <i name="e_fr_energy">   -498.87758440 </i>
    <i name="e_wo_entrp">   -498.92364415 </i>
    <i name="e_0_energy">   -498.89293765 </i>
   </energy>
  </scstep>
  <scstep>
   <time name="dav">  176.82   25.66</time>
   <time name="total">  202.74   32.07</time>
   <dipole>
    <v name="dipole">      0.00000000       0.00000000       0.01092202 </v>
    <i name="Tr[quadrupol]">  -6897.16324692 </i>
    <i name="Echarged">      0.00000000 </i>
    <i name="Edipol_quadrupol">      0.00000000 </i>
    <i name="Eion">      0.00000000 </i>
   </dipole>
   <energy>
    <i name="e_fr_energy">   -499.12688268 </i>
    <i name="e_wo_entrp">   -499.15773108 </i>
    <i name="e_0_energy">   -499.13716548 </i>
   </energy>
  </scstep>
  <scstep>
   <time name="dav">  175.32   25.17</time>
   <time name="total">  201.36   31.60</time>
   <dipole>
    <v name="dipole">      0.00000000       0.00000000      -0.00112911 </v>
    <i name="Tr[quadrupol]">  -6897.24635035 </i>
    <i name="Echarged">      0.00000000 </i>
    <i name="Edipol_quadrupol">      0.00000000 </i>
    <i name="Eion">      0.00000000 </i>
   </dipole>
   <energy>
    <i name="e_fr_energy">   -499.23726512 </i>
    <i name="e_wo_entrp">   -499.26301144 </i>
    <i name="e_0_energy">   -499.24584723 </i>
   </energy>
  </scstep>
  <scstep>
   <time name="dav">  182.75   26.22</time>
   <time name="total">  208.90   32.66</time>
   <dipole>
    <v name="dipole">      0.00000000       0.00000000      -0.00966322 </v>
    <i name="Tr[quadrupol]">  -6897.47235401 </i>
    <i name="Echarged">      0.00000000 </i>
    <i name="Edipol_quadrupol">      0.00000000 </i>
    <i name="Eion">      0.00000000 </i>
   </dipole>
   <energy>
    <i name="e_fr_energy">   -499.44704807 </i>
    <i name="e_wo_entrp">   -499.47030300 </i>
    <i name="e_0_energy">   -499.45479971 </i>
   </energy>
  </scstep>
  <scstep>
   <time name="dav">  181.72   26.07</time>
   <time name="total">  207.88   32.51</time>
   <dipole>
    <v name="dipole">      0.00000000       0.00000000       0.00684756 </v>
    <i name="Tr[quadrupol]">  -6897.54374662 </i>
    <i name="Echarged">      0.00000000 </i>
    <i name="Edipol_quadrupol">      0.00000000 </i>
    <i name="Eion">      0.00000000 </i>
   </dipole>
   <energy>
    <i name="e_fr_energy">   -499.58703356 </i>
    <i name="e_wo_entrp">   -499.60953625 </i>
    <i name="e_0_energy">   -499.59453446 </i>
   </energy>
  </scstep>
  <scstep>
   <time name="dav">  177.58   25.54</time>
   <time name="total">  203.69   32.00</time>
   <dipole>
    <v name="dipole">      0.00000000       0.00000000       0.02393857 </v>
    <i name="Tr[quadrupol]">  -6897.51294674 </i>
    <i name="Echarged">      0.00000000 </i>
    <i name="Edipol_quadrupol">      0.00000000 </i>
    <i name="Eion">      0.00000000 </i>
   </dipole>
   <energy>
    <i name="e_fr_energy">   -499.66790077 </i>
    <i name="e_wo_entrp">   -499.69110307 </i>
    <i name="e_0_energy">   -499.67563487 </i>
   </energy>
  </scstep>
  <scstep>
   <time name="dav">  166.91   23.97</time>
   <time name="total">  193.28   30.48</time>
   <dipole>
    <v name="dipole">      0.00000000       0.00000000       0.02325440 </v>
    <i name="Tr[quadrupol]">  -6897.44163175 </i>
    <i name="Echarged">      0.00000000 </i>
    <i name="Edipol_quadrupol">      0.00000000 </i>
    <i name="Eion">      0.00000000 </i>
   </dipole>
   <energy>
    <i name="e_fr_energy">   -499.68573914 </i>
    <i name="e_wo_entrp">   -499.71089969 </i>
    <i name="e_0_energy">   -499.69412599 </i>
   </energy>
  </scstep>
  <scstep>
   <time name="dav">  175.69   25.26</time>
   <time name="total">  201.20   31.73</time>
   <dipole>
    <v name="dipole">      0.00000000       0.00000000       0.02212430 </v>
    <i name="Tr[quadrupol]">  -6897.42054208 </i>
    <i name="Echarged">      0.00000000 </i>
    <i name="Edipol_quadrupol">      0.00000000 </i>
    <i name="Eion">      0.00000000 </i>
   </dipole>
   <energy>
    <i name="e_fr_energy">   -499.73304422 </i>
    <i name="e_wo_entrp">   -499.76059908 </i>
    <i name="e_0_energy">   -499.74222918 </i>
   </energy>
  </scstep>
  <scstep>
   <time name="dav">  179.06   25.92</time>
   <time name="total">  205.43   32.41</time>
   <dipole>
    <v name="dipole">      0.00000000       0.00000000       0.02229249 </v>
    <i name="Tr[quadrupol]">  -6897.41628031 </i>
    <i name="Echarged">      0.00000000 </i>
    <i name="Edipol_quadrupol">      0.00000000 </i>
    <i name="Eion">      0.00000000 </i>
   </dipole>
   <energy>
    <i name="e_fr_energy">   -499.81945096 </i>
    <i name="e_wo_entrp">   -499.84814853 </i>
    <i name="e_0_energy">   -499.82901682 </i>
   </energy>
  </scstep>
  <scstep>
   <time name="dav">  180.74   26.05</time>
   <time name="total">  206.32   32.55</time>
   <dipole>
    <v name="dipole">      0.00000000       0.00000000       0.02267416 </v>
    <i name="Tr[quadrupol]">  -6897.51731245 </i>
    <i name="Echarged">      0.00000000 </i>
    <i name="Edipol_quadrupol">      0.00000000 </i>
    <i name="Eion">      0.00000000 </i>
   </dipole>
   <energy>
    <i name="e_fr_energy">   -499.91379942 </i>
    <i name="e_wo_entrp">   -499.94269874 </i>
    <i name="e_0_energy">   -499.92343253 </i>
   </energy>
  </scstep>
  <scstep>
   <time name="dav">  160.64   23.13</time>
   <time name="total">  187.28   29.68</time>
   <dipole>
    <v name="dipole">      0.00000000       0.00000000       0.02628128 </v>
    <i name="Tr[quadrupol]">  -6897.51792572 </i>
    <i name="Echarged">      0.00000000 </i>
    <i name="Edipol_quadrupol">      0.00000000 </i>
    <i name="Eion">      0.00000000 </i>
   </dipole>
   <energy>
    <i name="e_fr_energy">   -499.91734757 </i>
    <i name="e_wo_entrp">   -499.94727925 </i>
    <i name="e_0_energy">   -499.92732480 </i>
   </energy>
  </scstep>
  <scstep>
   <time name="dav">  179.67   26.33</time>
   <time name="total">  206.26   32.88</time>
   <dipole>
    <v name="dipole">      0.00000000       0.00000000       0.02395155 </v>
    <i name="Tr[quadrupol]">  -6897.46823906 </i>
    <i name="Echarged">      0.00000000 </i>
    <i name="Edipol_quadrupol">      0.00000000 </i>
    <i name="Eion">      0.00000000 </i>
   </dipole>
   <energy>
    <i name="e_fr_energy">   -499.92464294 </i>
    <i name="e_wo_entrp">   -499.95479184 </i>
    <i name="e_0_energy">   -499.93469257 </i>
   </energy>
  </scstep>
  <scstep>
   <time name="dav">  172.96   24.83</time>
   <time name="total">  199.49   31.38</time>
   <dipole>
    <v name="dipole">      0.00000000       0.00000000       0.02652891 </v>
    <i name="Tr[quadrupol]">  -6897.46747091 </i>
    <i name="Echarged">      0.00000000 </i>
    <i name="Edipol_quadrupol">      0.00000000 </i>
    <i name="Eion">      0.00000000 </i>
   </dipole>
   <energy>
    <i name="e_fr_energy">   -499.92722603 </i>
    <i name="e_wo_entrp">   -499.95656160 </i>
    <i name="e_0_energy">   -499.93700456 </i>
   </energy>
  </scstep>
  <scstep>
   <time name="dav">  173.61   25.06</time>
   <time name="total">  200.14   31.60</time>
   <dipole>
    <v name="dipole">      0.00000000       0.00000000       0.02293041 </v>
    <i name="Tr[quadrupol]">  -6897.43301084 </i>
    <i name="Echarged">      0.00000000 </i>
    <i name="Edipol_quadrupol">      0.00000000 </i>
    <i name="Eion">      0.00000000 </i>
   </dipole>
   <energy>
    <i name="e_fr_energy">   -499.93011827 </i>
    <i name="e_wo_entrp">   -499.95818182 </i>
    <i name="e_0_energy">   -499.93947279 </i>
   </energy>
  </scstep>
  <scstep>
   <time name="dav">  171.45   24.60</time>
   <time name="total">  198.07   31.17</time>
   <dipole>
    <v name="dipole">      0.00000000       0.00000000       0.02429449 </v>
    <i name="Tr[quadrupol]">  -6897.42340609 </i>
    <i name="Echarged">      0.00000000 </i>
    <i name="Edipol_quadrupol">      0.00000000 </i>
    <i name="Eion">      0.00000000 </i>
   </dipole>
   <energy>
    <i name="e_fr_energy">   -499.93066383 </i>
    <i name="e_wo_entrp">   -499.95898333 </i>
    <i name="e_0_energy">   -499.94010366 </i>
   </energy>
  </scstep>
  <scstep>
   <time name="dav">  177.60   25.44</time>
   <time name="total">  204.23   32.05</time>
   <dipole>
    <v name="dipole">      0.00000000       0.00000000       0.02728292 </v>
    <i name="Tr[quadrupol]">  -6897.40903094 </i>
    <i name="Echarged">      0.00000000 </i>
    <i name="Edipol_quadrupol">      0.00000000 </i>
    <i name="Eion">      0.00000000 </i>
   </dipole>
   <energy>
    <i name="e_fr_energy">   -499.92953406 </i>
    <i name="e_wo_entrp">   -499.95811578 </i>
    <i name="e_0_energy">   -499.93906130 </i>
   </energy>
  </scstep>
  <scstep>
   <time name="dav">  174.12   25.11</time>
   <time name="total">  200.72   31.70</time>
   <dipole>
    <v name="dipole">      0.00000000       0.00000000       0.02786260 </v>
    <i name="Tr[quadrupol]">  -6897.40646987 </i>
    <i name="Echarged">      0.00000000 </i>
    <i name="Edipol_quadrupol">      0.00000000 </i>
    <i name="Eion">      0.00000000 </i>
   </dipole>
   <energy>
    <i name="e_fr_energy">   -499.93090381 </i>
    <i name="e_wo_entrp">   -499.95940144 </i>
    <i name="e_0_energy">   -499.94040302 </i>
   </energy>
  </scstep>
  <scstep>
   <time name="dav">  179.60   25.82</time>
   <time name="total">  206.37   32.44</time>
   <dipole>
    <v name="dipole">      0.00000000       0.00000000       0.02924348 </v>
    <i name="Tr[quadrupol]">  -6897.41206294 </i>
    <i name="Echarged">      0.00000000 </i>
    <i name="Edipol_quadrupol">      0.00000000 </i>
    <i name="Eion">      0.00000000 </i>
   </dipole>
   <energy>
    <i name="e_fr_energy">   -499.93138955 </i>
    <i name="e_wo_entrp">   -499.96035952 </i>
    <i name="e_0_energy">   -499.94104621 </i>
   </energy>
  </scstep>
  <scstep>
   <time name="dav">  173.59   24.86</time>
   <time name="total">  200.25   31.47</time>
   <dipole>
    <v name="dipole">      0.00000000       0.00000000       0.02839307 </v>
    <i name="Tr[quadrupol]">  -6897.41805133 </i>
    <i name="Echarged">      0.00000000 </i>
    <i name="Edipol_quadrupol">      0.00000000 </i>
    <i name="Eion">      0.00000000 </i>
   </dipole>
   <energy>
    <i name="e_fr_energy">   -499.93179832 </i>
    <i name="e_wo_entrp">   -499.96099030 </i>
    <i name="e_0_energy">   -499.94152898 </i>
   </energy>
  </scstep>
  <scstep>
   <time name="dav">  171.00   24.72</time>
   <time name="total">  197.29   31.42</time>
   <dipole>
    <v name="dipole">      0.00000000       0.00000000       0.02702574 </v>
    <i name="Tr[quadrupol]">  -6897.41698482 </i>
    <i name="Echarged">      0.00000000 </i>
    <i name="Edipol_quadrupol">      0.00000000 </i>
    <i name="Eion">      0.00000000 </i>
   </dipole>
   <energy>
    <i name="e_fr_energy">   -499.93188087 </i>
    <i name="e_wo_entrp">   -499.96139690 </i>
    <i name="e_0_energy">   -499.94171954 </i>
   </energy>
  </scstep>
  <scstep>
   <time name="dav">  169.48   24.29</time>
   <time name="total">  195.34   30.94</time>
   <dipole>
    <v name="dipole">      0.00000000       0.00000000       0.02719357 </v>
    <i name="Tr[quadrupol]">  -6897.42124355 </i>
    <i name="Echarged">      0.00000000 </i>
    <i name="Edipol_quadrupol">      0.00000000 </i>
    <i name="Eion">      0.00000000 </i>
   </dipole>
   <energy>
    <i name="e_fr_energy">   -499.93196226 </i>
    <i name="e_wo_entrp">   -499.96150221 </i>
    <i name="e_0_energy">   -499.94180891 </i>
   </energy>
  </scstep>
  <scstep>
   <time name="dav">  171.90   24.62</time>
   <time name="total">  198.50   31.29</time>
   <dipole>
    <v name="dipole">      0.00000000       0.00000000       0.02702156 </v>
    <i name="Tr[quadrupol]">  -6897.40718699 </i>
    <i name="Echarged">      0.00000000 </i>
    <i name="Edipol_quadrupol">      0.00000000 </i>
    <i name="Eion">      0.00000000 </i>
   </dipole>
   <energy>
    <i name="e_fr_energy">   -499.93202226 </i>
    <i name="e_wo_entrp">   -499.96140977 </i>
    <i name="e_0_energy">   -499.94181809 </i>
   </energy>
  </scstep>
  <scstep>
   <time name="dav">  172.95   25.00</time>
   <time name="total">  199.95   31.72</time>
   <dipole>
    <v name="dipole">      0.00000000       0.00000000       0.02711647 </v>
    <i name="Tr[quadrupol]">  -6897.40397195 </i>
    <i name="Echarged">      0.00000000 </i>
    <i name="Edipol_quadrupol">      0.00000000 </i>
    <i name="Eion">      0.00000000 </i>
   </dipole>
   <energy>
    <i name="e_fr_energy">   -499.93211548 </i>
    <i name="e_wo_entrp">   -499.96129765 </i>
    <i name="e_0_energy">   -499.94184287 </i>
   </energy>
  </scstep>
  <scstep>
   <time name="dav">  156.34   22.67</time>
   <time name="total">  183.39   29.46</time>
   <dipole>
    <v name="dipole">      0.00000000       0.00000000       0.02648754 </v>
    <i name="Tr[quadrupol]">  -6897.40526848 </i>
    <i name="Echarged">      0.00000000 </i>
    <i name="Edipol_quadrupol">      0.00000000 </i>
    <i name="Eion">      0.00000000 </i>
   </dipole>
   <energy>
    <i name="e_fr_energy">   -499.93213866 </i>
    <i name="e_wo_entrp">   -499.96132463 </i>
    <i name="e_0_energy">   -499.94186732 </i>
   </energy>
  </scstep>
  <scstep>
   <time name="dav">  108.03   18.18</time>
   <time name="total">  135.10   24.93</time>
   <dipole>
    <v name="dipole">      0.00000000       0.00000000       0.02678318 </v>
    <i name="Tr[quadrupol]">  -6897.41341827 </i>
    <i name="Echarged">      0.00000000 </i>
    <i name="Edipol_quadrupol">      0.00000000 </i>
    <i name="Eion">      0.00000000 </i>
   </dipole>
   <energy>
    <i name="e_fr_energy">   -499.93212403 </i>
    <i name="e_wo_entrp">   -499.96132099 </i>
    <i name="e_0_energy">   -499.94185635 </i>
   </energy>
  </scstep>
  <scstep>
   <time name="dav">   78.20   15.14</time>
   <time name="total">   99.34   20.59</time>
   <dipole>
    <v name="dipole">      0.00000000       0.00000000       0.02692997 </v>
    <i name="Tr[quadrupol]">  -6897.41414511 </i>
    <i name="Echarged">      0.00000000 </i>
    <i name="Edipol_quadrupol">      0.00000000 </i>
    <i name="Eion">      0.00000000 </i>
   </dipole>
   <energy>
    <i name="alphaZ">   1731.84446175 </i>
    <i name="ewald"> 210045.03149604 </i>
    <i name="hartreedc">-259422.39419091 </i>
    <i name="XCdc">    961.28291660 </i>
    <i name="pawpsdc">  53783.36986148 </i>
    <i name="pawaedc"> -54920.35921485 </i>
    <i name="eentropy">      0.02928567 </i>
    <i name="bandstr">  -4276.39645590 </i>
    <i name="atom">  51597.65971741 </i>
    <i name="e_fr_energy">   -499.93212271 </i>
    <i name="e_wo_entrp">   -499.96140838 </i>
    <i name="e_0_energy">   -499.94188460 </i>
   </energy>
  </scstep>
  <structure>
   <crystal>
    <varray name="basis" >
     <v>       8.53269958       0.00000000       0.00000000 </v>
     <v>      -0.00051933       8.49699972       0.00000000 </v>
     <v>       0.00000000       0.00000000      23.59499931 </v>
    </varray>
    <i name="volume">   1710.69280467 </i>
    <varray name="rec_basis" >
     <v>       0.11719620       0.00000716       0.00000000 </v>
     <v>       0.00000000       0.11768860       0.00000000 </v>
     <v>       0.00000000       0.00000000       0.04238186 </v>
    </varray>
   </crystal>
   <varray name="positions" >
    <v>       0.00086000       0.99993000       0.24271000 </v>
    <v>       0.16537838       0.16585743       0.30249319 </v>
    <v>       0.49960507       0.16104418       0.30054117 </v>
    <v>       0.66822000       0.00107000       0.24272000 </v>
    <v>       0.83595696       0.16690958       0.30192544 </v>
    <v>       0.00044000       0.33497000       0.24240000 </v>
    <v>       0.16994616       0.50377794       0.30381005 </v>
    <v>       0.33469000       0.33305000       0.24267000 </v>
    <v>       0.49849340       0.50743122       0.30242479 </v>
    <v>       0.83322799       0.49954466       0.30177594 </v>
    <v>       0.16969753       0.83236280       0.30428057 </v>
    <v>       0.33342000       0.66555000       0.24261000 </v>
    <v>       0.83612876       0.83367166       0.30192023 </v>
    <v>       0.00064000       0.00119000       0.00199000 </v>
    <v>       0.00238511       0.00112389       0.36034613 </v>
    <v>       0.16843000       0.16962000       0.06269000 </v>
    <v>       0.33460000       0.00297000       0.00254000 </v>
    <v>       0.33333057       0.01005393       0.36211451 </v>
    <v>       0.50463000       0.16850000       0.06120000 </v>
    <v>       0.83272000       0.16670000       0.06193000 </v>
    <v>       0.00004000       0.33467000       0.00213000 </v>
    <v>       0.00294303       0.33411725       0.35939893 </v>
    <v>       0.16757000       0.49895000       0.06268000 </v>
    <v>       0.50099000       0.49896000       0.06206000 </v>
    <v>       0.83393000       0.50234000       0.06235000 </v>
    <v>       0.00121000       0.66785000       0.00188000 </v>
    <v>       0.99300872       0.66422936       0.36049002 </v>
    <v>       0.16792000       0.83462000       0.06228000 </v>
    <v>       0.33437000       0.66664000       0.00225000 </v>
    <v>       0.50152000       0.83563000       0.06217000 </v>
    <v>       0.66753000       0.66705000       0.00175000 </v>
    <v>       0.66834250       0.66597200       0.35916774 </v>
    <v>       0.83293000       0.83584000       0.06235000 </v>
    <v>       0.00121000       0.00098000       0.12225000 </v>
    <v>       0.16700000       0.16811000       0.18239000 </v>
    <v>       0.33470000       0.00227000       0.12192000 </v>
    <v>       0.50174000       0.16716000       0.18263000 </v>
    <v>       0.83421000       0.16639000       0.18283000 </v>
    <v>       0.16964000       0.49868000       0.18209000 </v>
    <v>       0.50219000       0.50081000       0.18317000 </v>
    <v>       0.66741000       0.33395000       0.12233000 </v>
    <v>       0.83134000       0.50253000       0.18283000 </v>
    <v>       0.00132000       0.66795000       0.12253000 </v>
    <v>       0.16898000       0.83509000       0.18243000 </v>
    <v>       0.33446000       0.66703000       0.12223000 </v>
    <v>       0.49971000       0.83538000       0.18278000 </v>
    <v>       0.66698000       0.66840000       0.12259000 </v>
    <v>       0.83488000       0.83403000       0.18294000 </v>
    <v>       0.33558000       0.99863000       0.24353000 </v>
    <v>       0.66801000       0.33262000       0.24229000 </v>
    <v>       0.00448000       0.66739000       0.24217000 </v>
    <v>       0.49679050       0.83508720       0.30340677 </v>
    <v>       0.66521000       0.67351000       0.24327000 </v>
    <v>       0.66620000       0.99680000       0.00000000 </v>
    <v>       0.65770617       0.99707992       0.36490022 </v>
    <v>       0.33213000       0.33386000       0.00135000 </v>
    <v>       0.34225976       0.32791790       0.36220402 </v>
    <v>       0.67040000       0.33673000       0.00321000 </v>
    <v>       0.65881568       0.33045147       0.36734064 </v>
    <v>       0.66728000       0.99998000       0.12246000 </v>
    <v>       0.99806000       0.33495000       0.12235000 </v>
    <v>       0.33675000       0.33238000       0.12261000 </v>
   </varray>
  </structure>
  <varray name="forces" >
   <v>       0.04827173      -0.04586935      -0.22322981 </v>
   <v>       0.00729696       0.02998159       0.08272279 </v>
   <v>       0.01525910       0.03807396      -0.00107753 </v>
   <v>       0.01316389      -0.32139100      -0.00586891 </v>
   <v>      -0.05825227       0.00292172       0.03256715 </v>
   <v>       0.05009459       0.03558136      -0.21070540 </v>
   <v>      -0.01169230       0.00125483       0.07266130 </v>
   <v>       0.03027077       0.05565357      -0.12769835 </v>
   <v>       0.00441866      -0.01590000       0.03996857 </v>
   <v>      -0.00623451       0.00499051      -0.03617693 </v>
   <v>       0.00547105      -0.07036258       0.02536878 </v>
   <v>       0.14439123       0.21585643       0.03315301 </v>
   <v>      -0.04315871      -0.03050804       0.04405566 </v>
   <v>       0.01103096      -0.01887643       0.30440786 </v>
   <v>      -0.01615056       0.01054476      -0.02297722 </v>
   <v>      -0.31660816      -0.29139956      -0.03937790 </v>
   <v>      -0.01768876      -0.01809624       0.40211033 </v>
   <v>      -0.02341763       0.03012913       0.02146252 </v>
   <v>      -0.21025619      -0.15064913       0.53650958 </v>
   <v>       0.46640718       0.15598300       0.13456305 </v>
   <v>      -0.05642021       0.01728076       0.43863924 </v>
   <v>       0.02960544       0.00945207       0.03619813 </v>
   <v>      -0.25681165       0.29720118      -0.05738355 </v>
   <v>       0.10570706       0.45622936       0.15122299 </v>
   <v>       0.16483536       0.11591894      -0.10867443 </v>
   <v>       0.07077547       0.02151594       0.19249214 </v>
   <v>       0.03935919       0.02000394      -0.00731817 </v>
   <v>      -0.03942247      -0.02599543      -0.47623053 </v>
   <v>      -0.09422459       0.01719641       0.30580704 </v>
   <v>      -0.29198073      -0.38225447      -0.01793896 </v>
   <v>      -0.01619612      -0.05023775       0.43883925 </v>
   <v>      -0.02319656      -0.00636338      -0.04065717 </v>
   <v>       0.36079151      -0.37977769      -0.03632124 </v>
   <v>       0.00397477       0.14951590       0.05721406 </v>
   <v>       0.02484962       0.00250859       0.04704105 </v>
   <v>       0.08612116       0.08098525       0.10250835 </v>
   <v>      -0.16317438      -0.04957191      -0.01374846 </v>
   <v>       0.10824701       0.07809290      -0.10977214 </v>
   <v>      -0.06004994      -0.00814391       0.07334043 </v>
   <v>       0.00247464       0.11309477       0.04207251 </v>
   <v>       0.05865287      -0.01372326       0.04693723 </v>
   <v>       0.09551828       0.05932027       0.06678968 </v>
   <v>      -0.08969403      -0.03958193      -0.03326665 </v>
   <v>      -0.01228307      -0.04529089       0.01090120 </v>
   <v>       0.14861308       0.01001007       0.05711594 </v>
   <v>      -0.04665098      -0.07420728       0.04128064 </v>
   <v>      -0.06269033      -0.05862489       0.10048611 </v>
   <v>       0.02633063      -0.08610329       0.09168318 </v>
   <v>      -0.00636380       0.00530299      -0.23378720 </v>
   <v>      -0.09657166      -0.01744653       0.35317006 </v>
   <v>      -0.10815922       0.03762689      -0.05315780 </v>
   <v>       0.02577198      -0.04334505       0.02105224 </v>
   <v>      -0.03067475       0.02635853      -0.27198861 </v>
   <v>       0.06070518       0.43059941      -0.76458519 </v>
   <v>       0.00576690       0.01080110      -0.05363917 </v>
   <v>       0.32263676       0.02688383      -0.60774317 </v>
   <v>      -0.02501196      -0.01821626       0.00688739 </v>
   <v>      -0.33687722      -0.35807680      -0.20744646 </v>
   <v>       0.00588669       0.02094803      -0.04700731 </v>
   <v>      -0.08374892       0.18516785      -0.24882572 </v>
   <v>      -0.08980252      -0.07604533       0.04988726 </v>
   <v>       0.15076448      -0.07692750      -0.40451274 </v>
  </varray>
  <varray name="stress" >
   <v>     -20.34184922      -0.38249574      -0.02799618 </v>
   <v>      -0.38249614     -18.81329455       0.09172014 </v>
   <v>      -0.02799598       0.09171983      -4.05794176 </v>
  </varray>
  <energy>
   <i name="e_fr_energy">   -499.93212271 </i>
   <i name="e_wo_entrp">   -499.96140838 </i>
   <i name="e_0_energy">   -499.94188460 </i>
  </energy>
  <time name="totalsc"> 9479.53 1510.11</time>
 </calculation>
 <calculation>
  <scstep>
   <time name="dav">  120.46   17.24</time>
   <time name="total">  145.65   23.57</time>
   <dipole>
    <v name="dipole">      0.00000000       0.00000000       0.02695108 </v>
    <i name="Tr[quadrupol]">  -6897.91103590 </i>
    <i name="Echarged">      0.00000000 </i>
    <i name="Edipol_quadrupol">      0.00000000 </i>
    <i name="Eion">      0.00000000 </i>
   </dipole>
   <energy>
    <i name="alphaZ">   1731.62348158 </i>
    <i name="ewald"> 210038.13891140 </i>
    <i name="hartreedc">-259415.51029825 </i>
    <i name="XCdc">    961.30003250 </i>
    <i name="pawpsdc">  53784.27531423 </i>
    <i name="pawaedc"> -54921.29211641 </i>
    <i name="eentropy">      0.02952494 </i>
    <i name="bandstr">  -4276.15228627 </i>
    <i name="atom">  51597.65971741 </i>
    <i name="e_fr_energy">   -499.92771888 </i>
    <i name="e_wo_entrp">   -499.95724381 </i>
    <i name="e_0_energy">   -499.93756052 </i>
   </energy>
  </scstep>
  <scstep>
   <time name="dav">  134.19   19.21</time>
   <time name="total">  158.81   25.55</time>
   <dipole>
    <v name="dipole">      0.00000000       0.00000000       0.03411119 </v>
    <i name="Tr[quadrupol]">  -6897.91501109 </i>
    <i name="Echarged">      0.00000000 </i>
    <i name="Edipol_quadrupol">      0.00000000 </i>
    <i name="Eion">      0.00000000 </i>
   </dipole>
   <energy>
    <i name="e_fr_energy">   -499.93376243 </i>
    <i name="e_wo_entrp">   -499.96426215 </i>
    <i name="e_0_energy">   -499.94392900 </i>
   </energy>
  </scstep>
  <scstep>
   <time name="dav">  159.69   22.89</time>
   <time name="total">  184.99   29.22</time>
   <dipole>
    <v name="dipole">      0.00000000       0.00000000       0.02023578 </v>
    <i name="Tr[quadrupol]">  -6897.91056843 </i>
    <i name="Echarged">      0.00000000 </i>
    <i name="Edipol_quadrupol">      0.00000000 </i>
    <i name="Eion">      0.00000000 </i>
   </dipole>
   <energy>
    <i name="e_fr_energy">   -499.93468745 </i>
    <i name="e_wo_entrp">   -499.96344563 </i>
    <i name="e_0_energy">   -499.94427351 </i>
   </energy>
  </scstep>
  <scstep>
   <time name="dav">  178.84   25.66</time>
   <time name="total">  203.68   32.03</time>
   <dipole>
    <v name="dipole">      0.00000000       0.00000000       0.02913900 </v>
    <i name="Tr[quadrupol]">  -6897.93728644 </i>
    <i name="Echarged">      0.00000000 </i>
    <i name="Edipol_quadrupol">      0.00000000 </i>
    <i name="Eion">      0.00000000 </i>
   </dipole>
   <energy>
    <i name="e_fr_energy">   -499.93337313 </i>
    <i name="e_wo_entrp">   -499.96314175 </i>
    <i name="e_0_energy">   -499.94329600 </i>
   </energy>
  </scstep>
  <scstep>
   <time name="dav">  178.90   25.64</time>
   <time name="total">  204.75   32.04</time>
   <dipole>
    <v name="dipole">      0.00000000       0.00000000       0.02960956 </v>
    <i name="Tr[quadrupol]">  -6897.90859907 </i>
    <i name="Echarged">      0.00000000 </i>
    <i name="Edipol_quadrupol">      0.00000000 </i>
    <i name="Eion">      0.00000000 </i>
   </dipole>
   <energy>
    <i name="e_fr_energy">   -499.93388807 </i>
    <i name="e_wo_entrp">   -499.96382760 </i>
    <i name="e_0_energy">   -499.94386791 </i>
   </energy>
  </scstep>
  <scstep>
   <time name="dav">  174.29   24.94</time>
   <time name="total">  199.78   31.29</time>
   <dipole>
    <v name="dipole">      0.00000000       0.00000000       0.02631931 </v>
    <i name="Tr[quadrupol]">  -6897.92778901 </i>
    <i name="Echarged">      0.00000000 </i>
    <i name="Edipol_quadrupol">      0.00000000 </i>
    <i name="Eion">      0.00000000 </i>
   </dipole>
   <energy>
    <i name="e_fr_energy">   -499.93418677 </i>
    <i name="e_wo_entrp">   -499.96367440 </i>
    <i name="e_0_energy">   -499.94401598 </i>
   </energy>
  </scstep>
  <scstep>
   <time name="dav">  166.99   23.92</time>
   <time name="total">  192.69   30.30</time>
   <dipole>
    <v name="dipole">      0.00000000       0.00000000       0.02787150 </v>
    <i name="Tr[quadrupol]">  -6897.92413461 </i>
    <i name="Echarged">      0.00000000 </i>
    <i name="Edipol_quadrupol">      0.00000000 </i>
    <i name="Eion">      0.00000000 </i>
   </dipole>
   <energy>
    <i name="e_fr_energy">   -499.93413750 </i>
    <i name="e_wo_entrp">   -499.96381797 </i>
    <i name="e_0_energy">   -499.94403099 </i>
   </energy>
  </scstep>
  <scstep>
   <time name="dav">   96.88   16.02</time>
   <time name="total">  117.84   21.45</time>
   <dipole>
    <v name="dipole">      0.00000000       0.00000000       0.02850085 </v>
    <i name="Tr[quadrupol]">  -6897.92466113 </i>
    <i name="Echarged">      0.00000000 </i>
    <i name="Edipol_quadrupol">      0.00000000 </i>
    <i name="Eion">      0.00000000 </i>
   </dipole>
   <energy>
    <i name="alphaZ">   1732.32560407 </i>
    <i name="ewald"> 210038.13891140 </i>
    <i name="hartreedc">-259415.11168006 </i>
    <i name="XCdc">    961.28571884 </i>
    <i name="pawpsdc">  53784.61736852 </i>
    <i name="pawaedc"> -54921.64580336 </i>
    <i name="eentropy">      0.02978546 </i>
    <i name="bandstr">  -4277.23376817 </i>
    <i name="atom">  51597.65971741 </i>
    <i name="e_fr_energy">   -499.93414589 </i>
    <i name="e_wo_entrp">   -499.96393134 </i>
    <i name="e_0_energy">   -499.94407437 </i>
   </energy>
  </scstep>
  <structure>
   <crystal>
    <varray name="basis" >
     <v>       8.53269958       0.00000000       0.00000000 </v>
     <v>      -0.00051933       8.49699972       0.00000000 </v>
     <v>       0.00000000       0.00000000      23.59499931 </v>
    </varray>
    <i name="volume">   1710.69280467 </i>
    <varray name="rec_basis" >
     <v>       0.11719620       0.00000716       0.00000000 </v>
     <v>       0.00000000       0.11768860       0.00000000 </v>
     <v>       0.00000000       0.00000000       0.04238186 </v>
    </varray>
   </crystal>
   <varray name="positions" >
    <v>       0.00086000       0.99993000       0.24271000 </v>
    <v>       0.16541965       0.16602766       0.30266232 </v>
    <v>       0.49969135       0.16126035       0.30053897 </v>
    <v>       0.66822000       0.00107000       0.24272000 </v>
    <v>       0.83562761       0.16692617       0.30199203 </v>
    <v>       0.00044000       0.33497000       0.24240000 </v>
    <v>       0.16988005       0.50378506       0.30395862 </v>
    <v>       0.33469000       0.33305000       0.24267000 </v>
    <v>       0.49851838       0.50734095       0.30250651 </v>
    <v>       0.83319274       0.49957299       0.30170197 </v>
    <v>       0.16972844       0.83196331       0.30433244 </v>
    <v>       0.33342000       0.66555000       0.24261000 </v>
    <v>       0.83588473       0.83349845       0.30201031 </v>
    <v>       0.00064000       0.00119000       0.00199000 </v>
    <v>       0.00229380       0.00118376       0.36029915 </v>
    <v>       0.16843000       0.16962000       0.06269000 </v>
    <v>       0.33460000       0.00297000       0.00254000 </v>
    <v>       0.33319818       0.01022499       0.36215839 </v>
    <v>       0.50463000       0.16850000       0.06120000 </v>
    <v>       0.83272000       0.16670000       0.06193000 </v>
    <v>       0.00004000       0.33467000       0.00213000 </v>
    <v>       0.00311041       0.33417091       0.35947294 </v>
    <v>       0.16757000       0.49895000       0.06268000 </v>
    <v>       0.50099000       0.49896000       0.06206000 </v>
    <v>       0.83393000       0.50234000       0.06235000 </v>
    <v>       0.00121000       0.66785000       0.00188000 </v>
    <v>       0.99323125       0.66434294       0.36047506 </v>
    <v>       0.16792000       0.83462000       0.06228000 </v>
    <v>       0.33437000       0.66664000       0.00225000 </v>
    <v>       0.50152000       0.83563000       0.06217000 </v>
    <v>       0.66753000       0.66705000       0.00175000 </v>
    <v>       0.66821134       0.66593587       0.35908461 </v>
    <v>       0.83293000       0.83584000       0.06235000 </v>
    <v>       0.00121000       0.00098000       0.12225000 </v>
    <v>       0.16700000       0.16811000       0.18239000 </v>
    <v>       0.33470000       0.00227000       0.12192000 </v>
[...]
       <r>   -39.4374    -0.1177    42.0187 </r>
       <r>   -39.2670    -0.1089    42.0001 </r>
       <r>   -39.0967    -0.0008    42.0000 </r>
       <r>   -38.9264    -0.0000    42.0000 </r>
       <r>   -38.7561    -0.0000    42.0000 </r>
       <r>   -38.5857     0.0000    42.0000 </r>
       <r>   -38.4154     0.0000    42.0000 </r>
       <r>   -38.2451     0.0000    42.0000 </r>
       <r>   -38.0747     0.0000    42.0000 </r>
       <r>   -37.9044     0.0000    42.0000 </r>
       <r>   -37.7341     0.0000    42.0000 </r>
       <r>   -37.5638     0.0000    42.0000 </r>
       <r>   -37.3934     0.0000    42.0000 </r>
       <r>   -37.2231     0.0000    42.0000 </r>
       <r>   -37.0528     0.0000    42.0000 </r>
       <r>   -36.8825     0.0000    42.0000 </r>
       <r>   -36.7121     0.0000    42.0000 </r>
       <r>   -36.5418     0.0000    42.0000 </r>
       <r>   -36.3715     0.0000    42.0000 </r>
       <r>   -36.2011     0.0000    42.0000 </r>
       <r>   -36.0308     0.0000    42.0000 </r>
       <r>   -35.8605     0.0000    42.0000 </r>
       <r>   -35.6902     0.0000    42.0000 </r>
       <r>   -35.5198     0.0000    42.0000 </r>
       <r>   -35.3495     0.0000    42.0000 </r>
       <r>   -35.1792     0.0000    42.0000 </r>
       <r>   -35.0089     0.0000    42.0000 </r>
       <r>   -34.8385     0.0000    42.0000 </r>
       <r>   -34.6682     0.0000    42.0000 </r>
       <r>   -34.4979     0.0000    42.0000 </r>
       <r>   -34.3275     0.0000    42.0000 </r>
       <r>   -34.1572     0.0000    42.0000 </r>
       <r>   -33.9869     0.0000    42.0000 </r>
       <r>   -33.8166     0.0000    42.0000 </r>
       <r>   -33.6462     0.0000    42.0000 </r>
       <r>   -33.4759     0.0000    42.0000 </r>
       <r>   -33.3056     0.0000    42.0000 </r>
       <r>   -33.1353     0.0000    42.0000 </r>
       <r>   -32.9649     0.0000    42.0000 </r>
       <r>   -32.7946     0.0000    42.0000 </r>
       <r>   -32.6243     0.0000    42.0000 </r>
       <r>   -32.4539     0.0000    42.0000 </r>
       <r>   -32.2836     0.0000    42.0000 </r>
       <r>   -32.1133     0.0000    42.0000 </r>
       <r>   -31.9430     0.0000    42.0000 </r>
       <r>   -31.7726     0.0000    42.0000 </r>
       <r>   -31.6023     0.0000    42.0000 </r>
       <r>   -31.4320     0.0000    42.0000 </r>
       <r>   -31.2617     0.0000    42.0000 </r>
       <r>   -31.0913     0.0000    42.0000 </r>
       <r>   -30.9210     0.0000    42.0000 </r>
       <r>   -30.7507     0.0000    42.0000 </r>
       <r>   -30.5803     0.0000    42.0000 </r>
       <r>   -30.4100     0.0000    42.0000 </r>
       <r>   -30.2397     0.0000    42.0000 </r>
       <r>   -30.0694     0.0000    42.0000 </r>
       <r>   -29.8990     0.0000    42.0000 </r>
       <r>   -29.7287     0.0000    42.0000 </r>
       <r>   -29.5584     0.0000    42.0000 </r>
       <r>   -29.3881     0.0000    42.0000 </r>
       <r>   -29.2177     0.0000    42.0000 </r>
       <r>   -29.0474     0.0000    42.0000 </r>
       <r>   -28.8771     0.0000    42.0000 </r>
       <r>   -28.7067     0.0000    42.0000 </r>
       <r>   -28.5364     0.0000    42.0000 </r>
       <r>   -28.3661     0.0000    42.0000 </r>
       <r>   -28.1958     0.0000    42.0000 </r>
       <r>   -28.0254     0.0000    42.0000 </r>
       <r>   -27.8551     0.0000    42.0000 </r>
       <r>   -27.6848     0.0000    42.0000 </r>
       <r>   -27.5145     0.0000    42.0000 </r>
       <r>   -27.3441     0.0000    42.0000 </r>
       <r>   -27.1738     0.0000    42.0000 </r>
       <r>   -27.0035     0.0000    42.0000 </r>
       <r>   -26.8331     0.0000    42.0000 </r>
       <r>   -26.6628     0.0000    42.0000 </r>
       <r>   -26.4925     0.0000    42.0000 </r>
       <r>   -26.3222     0.0000    42.0000 </r>
       <r>   -26.1518     0.0000    42.0000 </r>
       <r>   -25.9815     0.0000    42.0000 </r>
       <r>   -25.8112     0.0000    42.0000 </r>
       <r>   -25.6409     0.0000    42.0000 </r>
       <r>   -25.4705     0.0000    42.0000 </r>
       <r>   -25.3002     0.0000    42.0000 </r>
       <r>   -25.1299     0.0000    42.0000 </r>
       <r>   -24.9595     0.0000    42.0000 </r>
       <r>   -24.7892     0.0000    42.0000 </r>
       <r>   -24.6189     0.0000    42.0000 </r>
       <r>   -24.4486     0.0000    42.0000 </r>
       <r>   -24.2782     0.0000    42.0000 </r>
       <r>   -24.1079     0.0000    42.0000 </r>
       <r>   -23.9376     0.0000    42.0000 </r>
       <r>   -23.7672     0.0000    42.0000 </r>
       <r>   -23.5969     0.0000    42.0000 </r>
       <r>   -23.4266     0.0000    42.0000 </r>
       <r>   -23.2563     0.0000    42.0000 </r>
       <r>   -23.0859     0.0000    42.0000 </r>
       <r>   -22.9156     0.0000    42.0000 </r>
       <r>   -22.7453     0.0000    42.0000 </r>
       <r>   -22.5750     0.0000    42.0000 </r>
       <r>   -22.4046     0.0000    42.0000 </r>
       <r>   -22.2343     0.0000    42.0000 </r>
       <r>   -22.0640     0.0000    42.0000 </r>
       <r>   -21.8936     0.0000    42.0000 </r>
       <r>   -21.7233     0.0000    42.0000 </r>
       <r>   -21.5530     0.0000    42.0000 </r>
       <r>   -21.3827     0.0000    42.0000 </r>
       <r>   -21.2123     0.0000    42.0000 </r>
       <r>   -21.0420     0.0000    42.0000 </r>
       <r>   -20.8717     0.0000    42.0000 </r>
       <r>   -20.7014     0.0000    42.0000 </r>
       <r>   -20.5310     0.0000    42.0000 </r>
       <r>   -20.3607     0.0000    42.0000 </r>
       <r>   -20.1904     0.0000    42.0000 </r>
       <r>   -20.0200     0.0000    42.0000 </r>
       <r>   -19.8497     0.0000    42.0000 </r>
       <r>   -19.6794     0.0000    42.0000 </r>
       <r>   -19.5091     0.0000    42.0000 </r>
       <r>   -19.3387     0.0000    42.0000 </r>
       <r>   -19.1684     0.0000    42.0000 </r>
       <r>   -18.9981     0.0000    42.0000 </r>
       <r>   -18.8278     0.0000    42.0000 </r>
       <r>   -18.6574     0.0000    42.0000 </r>
       <r>   -18.4871     0.0000    42.0000 </r>
       <r>   -18.3168     0.0000    42.0000 </r>
       <r>   -18.1464     0.0000    42.0000 </r>
       <r>   -17.9761     0.0000    42.0000 </r>
       <r>   -17.8058     0.0000    42.0000 </r>
       <r>   -17.6355     0.0000    42.0000 </r>
       <r>   -17.4651     0.0000    42.0000 </r>
       <r>   -17.2948     0.0000    42.0000 </r>
       <r>   -17.1245     0.0000    42.0000 </r>
       <r>   -16.9542     0.0000    42.0000 </r>
       <r>   -16.7838     0.0000    42.0000 </r>
       <r>   -16.6135     0.0000    42.0000 </r>
       <r>   -16.4432     0.0000    42.0000 </r>
       <r>   -16.2728     0.0000    42.0000 </r>
       <r>   -16.1025     0.0000    42.0000 </r>
       <r>   -15.9322     0.0000    42.0000 </r>
       <r>   -15.7619     0.0000    42.0000 </r>
       <r>   -15.5915     0.0000    42.0000 </r>
       <r>   -15.4212     0.0000    42.0000 </r>
       <r>   -15.2509     0.0000    42.0000 </r>
       <r>   -15.0806     0.0000    42.0000 </r>
       <r>   -14.9102     0.0000    42.0000 </r>
       <r>   -14.7399     0.0000    42.0000 </r>
       <r>   -14.5696     0.0000    42.0000 </r>
       <r>   -14.3992     0.0000    42.0000 </r>
       <r>   -14.2289     0.0000    42.0000 </r>
       <r>   -14.0586     0.0000    42.0000 </r>
       <r>   -13.8883     0.0000    42.0000 </r>
       <r>   -13.7179     0.0000    42.0000 </r>
       <r>   -13.5476     0.0000    42.0000 </r>
       <r>   -13.3773     0.0000    42.0000 </r>
       <r>   -13.2070     0.0000    42.0000 </r>
       <r>   -13.0366     0.0000    42.0000 </r>
       <r>   -12.8663     0.0000    42.0000 </r>
       <r>   -12.6960     0.0000    42.0000 </r>
       <r>   -12.5256     0.0000    42.0000 </r>
       <r>   -12.3553     0.0000    42.0000 </r>
       <r>   -12.1850     0.0000    42.0000 </r>
       <r>   -12.0147     0.0000    42.0000 </r>
       <r>   -11.8443     0.0000    42.0000 </r>
       <r>   -11.6740     0.0000    42.0000 </r>
       <r>   -11.5037     0.0000    42.0000 </r>
       <r>   -11.3334     0.0000    42.0000 </r>
       <r>   -11.1630     0.0000    42.0000 </r>
       <r>   -10.9927     0.0000    42.0000 </r>
       <r>   -10.8224     0.0000    42.0000 </r>
       <r>   -10.6520     0.0000    42.0000 </r>
       <r>   -10.4817     0.0000    42.0000 </r>
       <r>   -10.3114     0.0000    42.0000 </r>
       <r>   -10.1411     0.0000    42.0000 </r>
       <r>    -9.9707     0.0000    42.0000 </r>
       <r>    -9.8004     0.0000    42.0000 </r>
       <r>    -9.6301     0.0000    42.0000 </r>
       <r>    -9.4598     0.0000    42.0000 </r>
       <r>    -9.2894     0.0000    42.0000 </r>
       <r>    -9.1191     0.0000    42.0000 </r>
       <r>    -8.9488     0.0000    42.0000 </r>
       <r>    -8.7784     0.0000    42.0000 </r>
       <r>    -8.6081    -0.0000    42.0000 </r>
       <r>    -8.4378    -0.0000    42.0000 </r>
       <r>    -8.2675    -0.0000    42.0000 </r>
       <r>    -8.0971    -0.0000    42.0000 </r>
       <r>    -7.9268    -0.0000    42.0000 </r>
       <r>    -7.7565    -0.0000    42.0000 </r>
       <r>    -7.5861    -0.0016    41.9997 </r>
       <r>    -7.4158    -0.0212    41.9961 </r>
       <r>    -7.2455     0.2049    42.0310 </r>
       <r>    -7.0752     1.3292    42.2574 </r>
       <r>    -6.9048     1.5658    42.5241 </r>
       <r>    -6.7345     0.6173    42.6292 </r>
       <r>    -6.5642     2.4872    43.0529 </r>
       <r>    -6.3939     1.5597    43.3185 </r>
       <r>    -6.2235     0.2795    43.3661 </r>
       <r>    -6.0532     2.8083    43.8445 </r>
       <r>    -5.8829     4.5418    44.6181 </r>
       <r>    -5.7125     2.0885    44.9738 </r>
       <r>    -5.5422     3.7533    45.6131 </r>
       <r>    -5.3719     2.8934    46.1059 </r>
       <r>    -5.2016     1.2601    46.3206 </r>
       <r>    -5.0312     5.5469    47.2654 </r>
       <r>    -4.8609     4.7097    48.0675 </r>
       <r>    -4.6906     3.5597    48.6739 </r>
       <r>    -4.5203     4.6689    49.4691 </r>
       <r>    -4.3499     3.6690    50.0940 </r>
       <r>    -4.1796     9.3156    51.6807 </r>
       <r>    -4.0093     6.2306    52.7420 </r>
       <r>    -3.8389     7.5330    54.0251 </r>
       <r>    -3.6686     6.6149    55.1518 </r>
       <r>    -3.4983     8.4130    56.5847 </r>
       <r>    -3.3280    14.1386    58.9929 </r>
       <r>    -3.1576    18.0237    62.0628 </r>
       <r>    -2.9873    19.6001    65.4013 </r>
       <r>    -2.8170    21.9253    69.1358 </r>
       <r>    -2.6467    19.8975    72.5249 </r>
       <r>    -2.4763    25.3048    76.8349 </r>
       <r>    -2.3060    27.3205    81.4884 </r>
       <r>    -2.1357    29.8636    86.5750 </r>
       <r>    -1.9653    33.5646    92.2919 </r>
       <r>    -1.7950    34.3981    98.1509 </r>
       <r>    -1.6247    38.3727   104.6868 </r>
       <r>    -1.4544    45.0440   112.3590 </r>
       <r>    -1.2840    48.8562   120.6806 </r>
       <r>    -1.1137    48.3532   128.9165 </r>
       <r>    -0.9434    49.7755   137.3946 </r>
       <r>    -0.7731    58.0817   147.2875 </r>
       <r>    -0.6027    62.6945   157.9661 </r>
       <r>    -0.4324    65.7337   169.1623 </r>
       <r>    -0.2621    63.6890   180.0103 </r>
       <r>    -0.0917    55.5977   189.4801 </r>
       <r>     0.0786    42.4616   196.7125 </r>
       <r>     0.2489    31.9492   202.1543 </r>
       <r>     0.4192    25.2512   206.4553 </r>
       <r>     0.5896    27.0795   211.0677 </r>
       <r>     0.7599    32.7687   216.6491 </r>
       <r>     0.9302    38.4382   223.1962 </r>
       <r>     1.1005    47.6050   231.3046 </r>
       <r>     1.2709    53.9812   240.4991 </r>
       <r>     1.4412    60.8108   250.8568 </r>
       <r>     1.6115    68.5636   262.5350 </r>
       <r>     1.7819    70.0776   274.4712 </r>
       <r>     1.9522    74.8611   287.2221 </r>
       <r>     2.1225    85.8625   301.8468 </r>
       <r>     2.2928    91.8655   317.4940 </r>
       <r>     2.4632    96.7452   333.9724 </r>
       <r>     2.6335    73.4203   346.4778 </r>
       <r>     2.8038    48.2786   354.7010 </r>
       <r>     2.9741    33.9849   360.4896 </r>
       <r>     3.1445     9.6617   362.1352 </r>
       <r>     3.3148    -0.7243   362.0118 </r>
       <r>     3.4851    -0.0692   362.0000 </r>
       <r>     3.6555    -0.0003   362.0000 </r>
       <r>     3.8258    -0.0000   362.0000 </r>
       <r>     3.9961    -0.0000   362.0000 </r>
       <r>     4.1664     0.0000   362.0000 </r>
       <r>     4.3368     0.0000   362.0000 </r>
       <r>     4.5071     0.0000   362.0000 </r>
       <r>     4.6774     0.0000   362.0000 </r>
       <r>     4.8477     0.0000   362.0000 </r>
       <r>     5.0181     0.0000   362.0000 </r>
       <r>     5.1884     0.0000   362.0000 </r>
       <r>     5.3587     0.0000   362.0000 </r>
      </set>
     </set>
    </array>
   </total>
  </dos>
 </calculation>
 <structure name="finalpos" >
  <crystal>
   <varray name="basis" >
    <v>       8.53269958       0.00000000       0.00000000 </v>
    <v>      -0.00051933       8.49699972       0.00000000 </v>
    <v>       0.00000000       0.00000000      23.59499931 </v>
   </varray>
   <i name="volume">   1710.69280467 </i>
   <varray name="rec_basis" >
    <v>       0.11719620       0.00000716       0.00000000 </v>
    <v>       0.00000000       0.11768860       0.00000000 </v>
    <v>       0.00000000       0.00000000       0.04238186 </v>
   </varray>
  </crystal>
  <varray name="positions" >
   <v>       0.00086000       0.99993000       0.24271000 </v>
   <v>       0.16518108       0.16628776       0.30293635 </v>
   <v>       0.49952769       0.16150146       0.30051064 </v>
   <v>       0.66822000       0.00107000       0.24272000 </v>
   <v>       0.83540605       0.16719181       0.30201547 </v>
   <v>       0.00044000       0.33497000       0.24240000 </v>
   <v>       0.17003923       0.50377992       0.30438006 </v>
   <v>       0.33469000       0.33305000       0.24267000 </v>
   <v>       0.49794545       0.50692546       0.30261104 </v>
   <v>       0.83350303       0.49977551       0.30155869 </v>
   <v>       0.16980569       0.83135723       0.30448561 </v>
   <v>       0.33342000       0.66555000       0.24261000 </v>
   <v>       0.83563525       0.83323349       0.30207079 </v>
   <v>       0.00064000       0.00119000       0.00199000 </v>
   <v>       0.00169283       0.00134563       0.36016866 </v>
   <v>       0.16843000       0.16962000       0.06269000 </v>
   <v>       0.33460000       0.00297000       0.00254000 </v>
   <v>       0.33298710       0.01077992       0.36233171 </v>
   <v>       0.50463000       0.16850000       0.06120000 </v>
   <v>       0.83272000       0.16670000       0.06193000 </v>
   <v>       0.00004000       0.33467000       0.00213000 </v>
   <v>       0.00330980       0.33456125       0.35986633 </v>
   <v>       0.16757000       0.49895000       0.06268000 </v>
   <v>       0.50099000       0.49896000       0.06206000 </v>
   <v>       0.83393000       0.50234000       0.06235000 </v>
   <v>       0.00121000       0.66785000       0.00188000 </v>
   <v>       0.99397154       0.66457574       0.36058292 </v>
   <v>       0.16792000       0.83462000       0.06228000 </v>
   <v>       0.33437000       0.66664000       0.00225000 </v>
   <v>       0.50152000       0.83563000       0.06217000 </v>
   <v>       0.66753000       0.66705000       0.00175000 </v>
   <v>       0.66771955       0.66560127       0.35896199 </v>
   <v>       0.83293000       0.83584000       0.06235000 </v>
   <v>       0.00121000       0.00098000       0.12225000 </v>
   <v>       0.16700000       0.16811000       0.18239000 </v>
   <v>       0.33470000       0.00227000       0.12192000 </v>
   <v>       0.50174000       0.16716000       0.18263000 </v>
   <v>       0.83421000       0.16639000       0.18283000 </v>
   <v>       0.16964000       0.49868000       0.18209000 </v>
   <v>       0.50219000       0.50081000       0.18317000 </v>
   <v>       0.66741000       0.33395000       0.12233000 </v>
   <v>       0.83134000       0.50253000       0.18283000 </v>
   <v>       0.00132000       0.66795000       0.12253000 </v>
   <v>       0.16898000       0.83509000       0.18243000 </v>
   <v>       0.33446000       0.66703000       0.12223000 </v>
   <v>       0.49971000       0.83538000       0.18278000 </v>
   <v>       0.66698000       0.66840000       0.12259000 </v>
   <v>       0.83488000       0.83403000       0.18294000 </v>
   <v>       0.33558000       0.99863000       0.24353000 </v>
   <v>       0.66801000       0.33262000       0.24229000 </v>
   <v>       0.00448000       0.66739000       0.24217000 </v>
   <v>       0.49700961       0.83449527       0.30353281 </v>
   <v>       0.66521000       0.67351000       0.24327000 </v>
   <v>       0.66620000       0.99680000       0.00000000 </v>
   <v>       0.65741120       0.99737461       0.36440436 </v>
   <v>       0.33213000       0.33386000       0.00135000 </v>
   <v>       0.34161521       0.32741666       0.36244025 </v>
   <v>       0.67040000       0.33673000       0.00321000 </v>
   <v>       0.65913892       0.33109159       0.36693066 </v>
   <v>       0.66728000       0.99998000       0.12246000 </v>
   <v>       0.99806000       0.33495000       0.12235000 </v>
   <v>       0.33675000       0.33238000       0.12261000 </v>
  </varray>
  <varray name="selective"  type="logical" >
   <v type="logical" >  F  F  F </v>
   <v type="logical" >  T  T  T </v>
   <v type="logical" >  T  T  T </v>
   <v type="logical" >  F  F  F </v>
   <v type="logical" >  T  T  T </v>
   <v type="logical" >  F  F  F </v>
   <v type="logical" >  T  T  T </v>
   <v type="logical" >  F  F  F </v>
   <v type="logical" >  T  T  T </v>
   <v type="logical" >  T  T  T </v>
   <v type="logical" >  T  T  T </v>
   <v type="logical" >  F  F  F </v>
   <v type="logical" >  T  T  T </v>
   <v type="logical" >  F  F  F </v>
   <v type="logical" >  T  T  T </v>
   <v type="logical" >  F  F  F </v>
   <v type="logical" >  F  F  F </v>
   <v type="logical" >  T  T  T </v>
   <v type="logical" >  F  F  F </v>
   <v type="logical" >  F  F  F </v>
   <v type="logical" >  F  F  F </v>
   <v type="logical" >  T  T  T </v>
   <v type="logical" >  F  F  F </v>
   <v type="logical" >  F  F  F </v>
   <v type="logical" >  F  F  F </v>
   <v type="logical" >  F  F  F </v>
   <v type="logical" >  T  T  T </v>
   <v type="logical" >  F  F  F </v>
   <v type="logical" >  F  F  F </v>
   <v type="logical" >  F  F  F </v>
   <v type="logical" >  F  F  F </v>
   <v type="logical" >  T  T  T </v>
   <v type="logical" >  F  F  F </v>
   <v type="logical" >  F  F  F </v>
   <v type="logical" >  F  F  F </v>
   <v type="logical" >  F  F  F </v>
   <v type="logical" >  F  F  F </v>
   <v type="logical" >  F  F  F </v>
   <v type="logical" >  F  F  F </v>
   <v type="logical" >  F  F  F </v>
   <v type="logical" >  F  F  F </v>
   <v type="logical" >  F  F  F </v>
   <v type="logical" >  F  F  F </v>
   <v type="logical" >  F  F  F </v>
   <v type="logical" >  F  F  F </v>
   <v type="logical" >  F  F  F </v>
   <v type="logical" >  F  F  F </v>
   <v type="logical" >  F  F  F </v>
   <v type="logical" >  F  F  F </v>
   <v type="logical" >  F  F  F </v>
   <v type="logical" >  F  F  F </v>
   <v type="logical" >  T  T  T </v>
   <v type="logical" >  F  F  F </v>
   <v type="logical" >  F  F  F </v>
   <v type="logical" >  T  T  T </v>
   <v type="logical" >  F  F  F </v>
   <v type="logical" >  T  T  T </v>
   <v type="logical" >  F  F  F </v>
   <v type="logical" >  T  T  T </v>
   <v type="logical" >  F  F  F </v>
   <v type="logical" >  F  F  F </v>
   <v type="logical" >  F  F  F </v>
  </varray>
  <nose>
   <v>      -3.00000000       0.00000000       0.00010000       0.00010000 </v>
  </nose>
 </structure>
</modeling>
