ni3al                                   
           1
     8.532700    0.000000    0.000000
    -0.000519    8.497000    0.000000
     0.000000    0.000000   23.594999
   Fe   Cr
    48    14
Direct configuration=     1
   0.00086000  0.99993000  0.24271000
   0.16537838  0.16585743  0.30249319
   0.49960507  0.16104418  0.30054117
   0.66822000  0.00107000  0.24272000
   0.83595696  0.16690958  0.30192544
   0.00044000  0.33497000  0.24240000
   0.16994616  0.50377794  0.30381005
   0.33469000  0.33305000  0.24267000
   0.49849340  0.50743122  0.30242479
   0.83322799  0.49954466  0.30177594
   0.16969753  0.83236280  0.30428057
   0.33342000  0.66555000  0.24261000
   0.83612876  0.83367166  0.30192023
   0.00064000  0.00119000  0.00199000
   0.00238511  0.00112389  0.36034613
   0.16843000  0.16962000  0.06269000
   0.33460000  0.00297000  0.00254000
   0.33333057  0.01005393  0.36211451
   0.50463000  0.16850000  0.06120000
   0.83272000  0.16670000  0.06193000
   0.00004000  0.33467000  0.00213000
   0.00294303  0.33411725  0.35939893
   0.16757000  0.49895000  0.06268000
   0.50099000  0.49896000  0.06206000
   0.83393000  0.50234000  0.06235000
   0.00121000  0.66785000  0.00188000
   0.99300872  0.66422936  0.36049002
   0.16792000  0.83462000  0.06228000
   0.33437000  0.66664000  0.00225000
   0.50152000  0.83563000  0.06217000
   0.66753000  0.66705000  0.00175000
   0.66834250  0.66597200  0.35916774
   0.83293000  0.83584000  0.06235000
   0.00121000  0.00098000  0.12225000
   0.16700000  0.16811000  0.18239000
   0.33470000  0.00227000  0.12192000
   0.50174000  0.16716000  0.18263000
   0.83421000  0.16639000  0.18283000
   0.16964000  0.49868000  0.18209000
   0.50219000  0.50081000  0.18317000
   0.66741000  0.33395000  0.12233000
   0.83134000  0.50253000  0.18283000
   0.00132000  0.66795000  0.12253000
   0.16898000  0.83509000  0.18243000
   0.33446000  0.66703000  0.12223000
   0.49971000  0.83538000  0.18278000
   0.66698000  0.66840000  0.12259000
   0.83488000  0.83403000  0.18294000
   0.33558000  0.99863000  0.24353000
   0.66801000  0.33262000  0.24229000
   0.00448000  0.66739000  0.24217000
   0.49679050  0.83508720  0.30340677
   0.66521000  0.67351000  0.24327000
   0.66620000  0.99680000  0.00000000
   0.65770617  0.99707992  0.36490022
   0.33213000  0.33386000  0.00135000
   0.34225976  0.32791790  0.36220402
   0.67040000  0.33673000  0.00321000
   0.65881568  0.33045147  0.36734064
   0.66728000  0.99998000  0.12246000
   0.99806000  0.33495000  0.12235000
   0.33675000  0.33238000  0.12261000
Direct configuration=     2
   0.00086000  0.99993000  0.24271000
   0.16541965  0.16602766  0.30266232
   0.49969135  0.16126035  0.30053897
   0.66822000  0.00107000  0.24272000
   0.83562761  0.16692617  0.30199203
   0.00044000  0.33497000  0.24240000
   0.16988005  0.50378506  0.30395862
   0.33469000  0.33305000  0.24267000
   0.49851838  0.50734095  0.30250651
   0.83319274  0.49957299  0.30170197
   0.16972844  0.83196331  0.30433244
   0.33342000  0.66555000  0.24261000
   0.83588473  0.83349845  0.30201031
   0.00064000  0.00119000  0.00199000
   0.00229380  0.00118376  0.36029915
   0.16843000  0.16962000  0.06269000
   0.33460000  0.00297000  0.00254000
   0.33319818  0.01022499  0.36215839
   0.50463000  0.16850000  0.06120000
   0.83272000  0.16670000  0.06193000
   0.00004000  0.33467000  0.00213000
   0.00311041  0.33417091  0.35947294
   0.16757000  0.49895000  0.06268000
   0.50099000  0.49896000  0.06206000
   0.83393000  0.50234000  0.06235000
   0.00121000  0.66785000  0.00188000
   0.99323125  0.66434294  0.36047506
   0.16792000  0.83462000  0.06228000
   0.33437000  0.66664000  0.00225000
   0.50152000  0.83563000  0.06217000
   0.66753000  0.66705000  0.00175000
   0.66821134  0.66593587  0.35908461
   0.83293000  0.83584000  0.06235000
   0.00121000  0.00098000  0.12225000
   0.16700000  0.16811000  0.18239000
   0.33470000  0.00227000  0.12192000
   0.50174000  0.16716000  0.18263000
   0.83421000  0.16639000  0.18283000
   0.16964000  0.49868000  0.18209000
   0.50219000  0.50081000  0.18317000
   0.66741000  0.33395000  0.12233000
   0.83134000  0.50253000  0.18283000
   0.00132000  0.66795000  0.12253000
   0.16898000  0.83509000  0.18243000
   0.33446000  0.66703000  0.12223000
   0.49971000  0.83538000  0.18278000
   0.66698000  0.66840000  0.12259000
   0.83488000  0.83403000  0.18294000
   0.33558000  0.99863000  0.24353000
   0.66801000  0.33262000  0.24229000
   0.00448000  0.66739000  0.24217000
   0.49693619  0.83484110  0.30344981
   0.66521000  0.67351000  0.24327000
   0.66620000  0.99680000  0.00000000
   0.65773878  0.99714125  0.36479055
   0.33213000  0.33386000  0.00135000
   0.34211834  0.32781448  0.36221810
   0.67040000  0.33673000  0.00321000
   0.65884897  0.33057040  0.36724453
   0.66728000  0.99998000  0.12246000
   0.99806000  0.33495000  0.12235000
   0.33675000  0.33238000  0.12261000
Direct configuration=     3
   0.00086000  0.99993000  0.24271000
   0.16550041  0.16636080  0.30299334
   0.49986022  0.16168341  0.30053466
   0.66822000  0.00107000  0.24272000
   0.83498304  0.16695863  0.30212235
   0.00044000  0.33497000  0.24240000
   0.16975068  0.50379901  0.30424938
   0.33469000  0.33305000  0.24267000
   0.49856726  0.50716427  0.30266645
   0.83312376  0.49962844  0.30155721
   0.16978893  0.83118146  0.30443396
   0.33342000  0.66555000  0.24261000
   0.83540715  0.83315945  0.30218660
   0.00064000  0.00119000  0.00199000
   0.00211510  0.00130093  0.36020720
   0.16843000  0.16962000  0.06269000
   0.33460000  0.00297000  0.00254000
   0.33293908  0.01055978  0.36224427
   0.50463000  0.16850000  0.06120000
   0.83272000  0.16670000  0.06193000
   0.00004000  0.33467000  0.00213000
   0.00343801  0.33427594  0.35961779
   0.16757000  0.49895000  0.06268000
   0.50099000  0.49896000  0.06206000
   0.83393000  0.50234000  0.06235000
   0.00121000  0.66785000  0.00188000
   0.99366679  0.66456522  0.36044577
   0.16792000  0.83462000  0.06228000
   0.33437000  0.66664000  0.00225000
   0.50152000  0.83563000  0.06217000
   0.66753000  0.66705000  0.00175000
   0.66795466  0.66586516  0.35892192
   0.83293000  0.83584000  0.06235000
   0.00121000  0.00098000  0.12225000
   0.16700000  0.16811000  0.18239000
   0.33470000  0.00227000  0.12192000
   0.50174000  0.16716000  0.18263000
   0.83421000  0.16639000  0.18283000
   0.16964000  0.49868000  0.18209000
   0.50219000  0.50081000  0.18317000
   0.66741000  0.33395000  0.12233000
   0.83134000  0.50253000  0.18283000
   0.00132000  0.66795000  0.12253000
   0.16898000  0.83509000  0.18243000
   0.33446000  0.66703000  0.12223000
   0.49971000  0.83538000  0.18278000
   0.66698000  0.66840000  0.12259000
   0.83488000  0.83403000  0.18294000
   0.33558000  0.99863000  0.24353000
   0.66801000  0.33262000  0.24229000
   0.00448000  0.66739000  0.24217000
   0.49722134  0.83435947  0.30353405
   0.66521000  0.67351000  0.24327000
   0.66620000  0.99680000  0.00000000
   0.65780260  0.99726127  0.36457591
   0.33213000  0.33386000  0.00135000
   0.34184157  0.32761206  0.36224566
   0.67040000  0.33673000  0.00321000
   0.65891412  0.33080317  0.36705643
   0.66728000  0.99998000  0.12246000
   0.99806000  0.33495000  0.12235000
   0.33675000  0.33238000  0.12261000
Direct configuration=     4
   0.00086000  0.99993000  0.24271000
   0.16548370  0.16629188  0.30292486
   0.49982529  0.16159589  0.30053555
   0.66822000  0.00107000  0.24272000
   0.83511639  0.16695192  0.30209539
   0.00044000  0.33497000  0.24240000
   0.16977744  0.50379612  0.30418923
   0.33469000  0.33305000  0.24267000
   0.49855715  0.50720082  0.30263336
   0.83313803  0.49961697  0.30158715
   0.16977641  0.83134320  0.30441296
   0.33342000  0.66555000  0.24261000
   0.83550595  0.83322958  0.30215013
   0.00064000  0.00119000  0.00199000
   0.00215207  0.00127669  0.36022622
   0.16843000  0.16962000  0.06269000
   0.33460000  0.00297000  0.00254000
   0.33299268  0.01049052  0.36222650
   0.50463000  0.16850000  0.06120000
   0.83272000  0.16670000  0.06193000
   0.00004000  0.33467000  0.00213000
   0.00337024  0.33425421  0.35958782
   0.16757000  0.49895000  0.06268000
   0.50099000  0.49896000  0.06206000
   0.83393000  0.50234000  0.06235000
   0.00121000  0.66785000  0.00188000
   0.99357669  0.66451923  0.36045183
   0.16792000  0.83462000  0.06228000
   0.33437000  0.66664000  0.00225000
   0.50152000  0.83563000  0.06217000
   0.66753000  0.66705000  0.00175000
   0.66800777  0.66587979  0.35895558
   0.83293000  0.83584000  0.06235000
   0.00121000  0.00098000  0.12225000
   0.16700000  0.16811000  0.18239000
   0.33470000  0.00227000  0.12192000
   0.50174000  0.16716000  0.18263000
   0.83421000  0.16639000  0.18283000
   0.16964000  0.49868000  0.18209000
   0.50219000  0.50081000  0.18317000
   0.66741000  0.33395000  0.12233000
   0.83134000  0.50253000  0.18283000
   0.00132000  0.66795000  0.12253000
   0.16898000  0.83509000  0.18243000
   0.33446000  0.66703000  0.12223000
   0.49971000  0.83538000  0.18278000
   0.66698000  0.66840000  0.12259000
   0.83488000  0.83403000  0.18294000
   0.33558000  0.99863000  0.24353000
   0.66801000  0.33262000  0.24229000
   0.00448000  0.66739000  0.24217000
   0.49716235  0.83445911  0.30351663
   0.66521000  0.67351000  0.24327000
   0.66620000  0.99680000  0.00000000
   0.65778940  0.99723644  0.36462031
   0.33213000  0.33386000  0.00135000
   0.34189883  0.32765394  0.36223996
   0.67040000  0.33673000  0.00321000
   0.65890065  0.33075502  0.36709534
   0.66728000  0.99998000  0.12246000
   0.99806000  0.33495000  0.12235000
   0.33675000  0.33238000  0.12261000
Direct configuration=     5
   0.00086000  0.99993000  0.24271000
   0.16547435  0.16625330  0.30288653
   0.49980573  0.16154690  0.30053605
   0.66822000  0.00107000  0.24272000
   0.83519103  0.16694816  0.30208030
   0.00044000  0.33497000  0.24240000
   0.16979242  0.50379451  0.30415555
   0.33469000  0.33305000  0.24267000
   0.49855149  0.50722128  0.30261484
   0.83314602  0.49961055  0.30160392
   0.16976941  0.83143375  0.30440120
   0.33342000  0.66555000  0.24261000
   0.83556126  0.83326884  0.30212971
   0.00064000  0.00119000  0.00199000
   0.00217276  0.00126312  0.36023687
   0.16843000  0.16962000  0.06269000
   0.33460000  0.00297000  0.00254000
   0.33302269  0.01045175  0.36221656
   0.50463000  0.16850000  0.06120000
   0.83272000  0.16670000  0.06193000
   0.00004000  0.33467000  0.00213000
   0.00333230  0.33424205  0.35957105
   0.16757000  0.49895000  0.06268000
   0.50099000  0.49896000  0.06206000
   0.83393000  0.50234000  0.06235000
   0.00121000  0.66785000  0.00188000
   0.99352625  0.66449349  0.36045522
   0.16792000  0.83462000  0.06228000
   0.33437000  0.66664000  0.00225000
   0.50152000  0.83563000  0.06217000
   0.66753000  0.66705000  0.00175000
   0.66803749  0.66588798  0.35897442
   0.83293000  0.83584000  0.06235000
   0.00121000  0.00098000  0.12225000
   0.16700000  0.16811000  0.18239000
   0.33470000  0.00227000  0.12192000
   0.50174000  0.16716000  0.18263000
   0.83421000  0.16639000  0.18283000
   0.16964000  0.49868000  0.18209000
   0.50219000  0.50081000  0.18317000
   0.66741000  0.33395000  0.12233000
   0.83134000  0.50253000  0.18283000
   0.00132000  0.66795000  0.12253000
   0.16898000  0.83509000  0.18243000
   0.33446000  0.66703000  0.12223000
   0.49971000  0.83538000  0.18278000
   0.66698000  0.66840000  0.12259000
   0.83488000  0.83403000  0.18294000
   0.33558000  0.99863000  0.24353000
   0.66801000  0.33262000  0.24229000
   0.00448000  0.66739000  0.24217000
   0.49712933  0.83451488  0.30350687
   0.66521000  0.67351000  0.24327000
   0.66620000  0.99680000  0.00000000
   0.65778201  0.99722254  0.36464517
   0.33213000  0.33386000  0.00135000
   0.34193088  0.32767738  0.36223677
   0.67040000  0.33673000  0.00321000
   0.65889310  0.33072806  0.36711712
   0.66728000  0.99998000  0.12246000
   0.99806000  0.33495000  0.12235000
   0.33675000  0.33238000  0.12261000
Direct configuration=     6
   0.00086000  0.99993000  0.24271000
   0.16547837  0.16626988  0.30290299
   0.49981413  0.16156794  0.30053583
   0.66822000  0.00107000  0.24272000
   0.83515897  0.16694977  0.30208678
   0.00044000  0.33497000  0.24240000
   0.16978599  0.50379520  0.30417002
   0.33469000  0.33305000  0.24267000
   0.49855392  0.50721249  0.30262280
   0.83314259  0.49961331  0.30159672
   0.16977242  0.83139485  0.30440625
   0.33342000  0.66555000  0.24261000
   0.83553750  0.83325198  0.30213848
   0.00064000  0.00119000  0.00199000
   0.00216387  0.00126895  0.36023230
   0.16843000  0.16962000  0.06269000
   0.33460000  0.00297000  0.00254000
   0.33300980  0.01046840  0.36222083
   0.50463000  0.16850000  0.06120000
   0.83272000  0.16670000  0.06193000
   0.00004000  0.33467000  0.00213000
   0.00334860  0.33424728  0.35957825
   0.16757000  0.49895000  0.06268000
   0.50099000  0.49896000  0.06206000
   0.83393000  0.50234000  0.06235000
   0.00121000  0.66785000  0.00188000
   0.99354791  0.66450455  0.36045377
   0.16792000  0.83462000  0.06228000
   0.33437000  0.66664000  0.00225000
   0.50152000  0.83563000  0.06217000
   0.66753000  0.66705000  0.00175000
   0.66802472  0.66588446  0.35896633
   0.83293000  0.83584000  0.06235000
   0.00121000  0.00098000  0.12225000
   0.16700000  0.16811000  0.18239000
   0.33470000  0.00227000  0.12192000
   0.50174000  0.16716000  0.18263000
   0.83421000  0.16639000  0.18283000
   0.16964000  0.49868000  0.18209000
   0.50219000  0.50081000  0.18317000
   0.66741000  0.33395000  0.12233000
   0.83134000  0.50253000  0.18283000
   0.00132000  0.66795000  0.12253000
   0.16898000  0.83509000  0.18243000
   0.33446000  0.66703000  0.12223000
   0.49971000  0.83538000  0.18278000
   0.66698000  0.66840000  0.12259000
   0.83488000  0.83403000  0.18294000
   0.33558000  0.99863000  0.24353000
   0.66801000  0.33262000  0.24229000
   0.00448000  0.66739000  0.24217000
   0.49714351  0.83449092  0.30351106
   0.66521000  0.67351000  0.24327000
   0.66620000  0.99680000  0.00000000
   0.65778518  0.99722851  0.36463449
   0.33213000  0.33386000  0.00135000
   0.34191711  0.32766731  0.36223814
   0.67040000  0.33673000  0.00321000
   0.65889634  0.33073964  0.36710777
   0.66728000  0.99998000  0.12246000
   0.99806000  0.33495000  0.12235000
   0.33675000  0.33238000  0.12261000
Direct configuration=     7
   0.00086000  0.99993000  0.24271000
   0.16547649  0.16626215  0.30289532
   0.49981021  0.16155813  0.30053593
   0.66822000  0.00107000  0.24272000
   0.83517392  0.16694902  0.30208375
   0.00044000  0.33497000  0.24240000
   0.16978899  0.50379488  0.30416327
   0.33469000  0.33305000  0.24267000
   0.49855278  0.50721659  0.30261909
   0.83314419  0.49961202  0.30160008
   0.16977101  0.83141299  0.30440390
   0.33342000  0.66555000  0.24261000
   0.83554858  0.83325984  0.30213439
   0.00064000  0.00119000  0.00199000
   0.00216802  0.00126623  0.36023443
   0.16843000  0.16962000  0.06269000
   0.33460000  0.00297000  0.00254000
   0.33301581  0.01046064  0.36221884
   0.50463000  0.16850000  0.06120000
   0.83272000  0.16670000  0.06193000
   0.00004000  0.33467000  0.00213000
   0.00334100  0.33424484  0.35957489
   0.16757000  0.49895000  0.06268000
   0.50099000  0.49896000  0.06206000
   0.83393000  0.50234000  0.06235000
   0.00121000  0.66785000  0.00188000
   0.99353781  0.66449939  0.36045445
   0.16792000  0.83462000  0.06228000
   0.33437000  0.66664000  0.00225000
   0.50152000  0.83563000  0.06217000
   0.66753000  0.66705000  0.00175000
   0.66803068  0.66588610  0.35897010
   0.83293000  0.83584000  0.06235000
   0.00121000  0.00098000  0.12225000
   0.16700000  0.16811000  0.18239000
   0.33470000  0.00227000  0.12192000
   0.50174000  0.16716000  0.18263000
   0.83421000  0.16639000  0.18283000
   0.16964000  0.49868000  0.18209000
   0.50219000  0.50081000  0.18317000
   0.66741000  0.33395000  0.12233000
   0.83134000  0.50253000  0.18283000
   0.00132000  0.66795000  0.12253000
   0.16898000  0.83509000  0.18243000
   0.33446000  0.66703000  0.12223000
   0.49971000  0.83538000  0.18278000
   0.66698000  0.66840000  0.12259000
   0.83488000  0.83403000  0.18294000
   0.33558000  0.99863000  0.24353000
   0.66801000  0.33262000  0.24229000
   0.00448000  0.66739000  0.24217000
   0.49713689  0.83450210  0.30350911
   0.66521000  0.67351000  0.24327000
   0.66620000  0.99680000  0.00000000
   0.65778370  0.99722572  0.36463947
   0.33213000  0.33386000  0.00135000
   0.34192353  0.32767201  0.36223750
   0.67040000  0.33673000  0.00321000
   0.65889483  0.33073424  0.36711213
   0.66728000  0.99998000  0.12246000
   0.99806000  0.33495000  0.12235000
   0.33675000  0.33238000  0.12261000
Direct configuration=     8
   0.00086000  0.99993000  0.24271000
   0.16547746  0.16626616  0.30289930
   0.49981225  0.16156322  0.30053588
   0.66822000  0.00107000  0.24272000
   0.83516616  0.16694941  0.30208532
   0.00044000  0.33497000  0.24240000
   0.16978743  0.50379505  0.30416677
   0.33469000  0.33305000  0.24267000
   0.49855337  0.50721446  0.30262101
   0.83314336  0.49961269  0.30159833
   0.16977174  0.83140357  0.30440512
   0.33342000  0.66555000  0.24261000
   0.83554283  0.83325576  0.30213651
   0.00064000  0.00119000  0.00199000
   0.00216587  0.00126765  0.36023332
   0.16843000  0.16962000  0.06269000
   0.33460000  0.00297000  0.00254000
   0.33301269  0.01046467  0.36221987
   0.50463000  0.16850000  0.06120000
   0.83272000  0.16670000  0.06193000
   0.00004000  0.33467000  0.00213000
   0.00334494  0.33424610  0.35957664
   0.16757000  0.49895000  0.06268000
   0.50099000  0.49896000  0.06206000
   0.83393000  0.50234000  0.06235000
   0.00121000  0.66785000  0.00188000
   0.99354306  0.66450207  0.36045409
   0.16792000  0.83462000  0.06228000
   0.33437000  0.66664000  0.00225000
   0.50152000  0.83563000  0.06217000
   0.66753000  0.66705000  0.00175000
   0.66802759  0.66588525  0.35896814
   0.83293000  0.83584000  0.06235000
   0.00121000  0.00098000  0.12225000
   0.16700000  0.16811000  0.18239000
   0.33470000  0.00227000  0.12192000
   0.50174000  0.16716000  0.18263000
   0.83421000  0.16639000  0.18283000
   0.16964000  0.49868000  0.18209000
   0.50219000  0.50081000  0.18317000
   0.66741000  0.33395000  0.12233000
   0.83134000  0.50253000  0.18283000
   0.00132000  0.66795000  0.12253000
   0.16898000  0.83509000  0.18243000
   0.33446000  0.66703000  0.12223000
   0.49971000  0.83538000  0.18278000
   0.66698000  0.66840000  0.12259000
   0.83488000  0.83403000  0.18294000
   0.33558000  0.99863000  0.24353000
   0.66801000  0.33262000  0.24229000
   0.00448000  0.66739000  0.24217000
   0.49714033  0.83449630  0.30351012
   0.66521000  0.67351000  0.24327000
   0.66620000  0.99680000  0.00000000
   0.65778447  0.99722717  0.36463689
   0.33213000  0.33386000  0.00135000
   0.34192020  0.32766957  0.36223783
   0.67040000  0.33673000  0.00321000
   0.65889562  0.33073704  0.36710987
   0.66728000  0.99998000  0.12246000
   0.99806000  0.33495000  0.12235000
   0.33675000  0.33238000  0.12261000
Direct configuration=     9
   0.00086000  0.99993000  0.24271000
   0.16536315  0.16624634  0.30291488
   0.49973481  0.16152906  0.30052638
   0.66822000  0.00107000  0.24272000
   0.83525126  0.16702555  0.30206259
   0.00044000  0.33497000  0.24240000
   0.16987056  0.50379346  0.30424746
   0.33469000  0.33305000  0.24267000
   0.49833261  0.50709371  0.30262427
   0.83326749  0.49960921  0.30155795
   0.16978615  0.83134696  0.30443217
   0.33342000  0.66555000  0.24261000
   0.83557955  0.83328295  0.30210385
   0.00064000  0.00119000  0.00199000
   0.00203096  0.00130033  0.36020515
   0.16843000  0.16962000  0.06269000
   0.33460000  0.00297000  0.00254000
   0.33301894  0.01056683  0.36225732
   0.50463000  0.16850000  0.06120000
   0.83272000  0.16670000  0.06193000
   0.00004000  0.33467000  0.00213000
   0.00332503  0.33435146  0.35968311
   0.16757000  0.49895000  0.06268000
   0.50099000  0.49896000  0.06206000
   0.83393000  0.50234000  0.06235000
   0.00121000  0.66785000  0.00188000
   0.99370895  0.66452723  0.36049665
   0.16792000  0.83462000  0.06228000
   0.33437000  0.66664000  0.00225000
   0.50152000  0.83563000  0.06217000
   0.66753000  0.66705000  0.00175000
   0.66790142  0.66578780  0.35898090
   0.83293000  0.83584000  0.06235000
   0.00121000  0.00098000  0.12225000
   0.16700000  0.16811000  0.18239000
   0.33470000  0.00227000  0.12192000
   0.50174000  0.16716000  0.18263000
   0.83421000  0.16639000  0.18283000
   0.16964000  0.49868000  0.18209000
   0.50219000  0.50081000  0.18317000
   0.66741000  0.33395000  0.12233000
   0.83134000  0.50253000  0.18283000
   0.00132000  0.66795000  0.12253000
   0.16898000  0.83509000  0.18243000
   0.33446000  0.66703000  0.12223000
   0.49971000  0.83538000  0.18278000
   0.66698000  0.66840000  0.12259000
   0.83488000  0.83403000  0.18294000
   0.33558000  0.99863000  0.24353000
   0.66801000  0.33262000  0.24229000
   0.00448000  0.66739000  0.24217000
   0.49710851  0.83449358  0.30352309
   0.66521000  0.67351000  0.24327000
   0.66620000  0.99680000  0.00000000
   0.65765208  0.99727985  0.36456147
   0.33213000  0.33386000  0.00135000
   0.34182661  0.32760861  0.36229227
   0.67040000  0.33673000  0.00321000
   0.65898285  0.33087683  0.36705654
   0.66728000  0.99998000  0.12246000
   0.99806000  0.33495000  0.12235000
   0.33675000  0.33238000  0.12261000
Direct configuration=    10
   0.00086000  0.99993000  0.24271000
   0.16503406  0.16618928  0.30295972
   0.49951189  0.16143071  0.30049901
   0.66822000  0.00107000  0.24272000
   0.83549624  0.16724473  0.30199715
   0.00044000  0.33497000  0.24240000
   0.17010985  0.50378888  0.30447974
   0.33469000  0.33305000  0.24267000
   0.49769707  0.50674607  0.30263366
   0.83362482  0.49959918  0.30144171
   0.16982763  0.83118399  0.30451003
   0.33342000  0.66555000  0.24261000
   0.83568526  0.83336124  0.30200981
   0.00064000  0.00119000  0.00199000
   0.00164260  0.00139441  0.36012405
   0.16843000  0.16962000  0.06269000
   0.33460000  0.00297000  0.00254000
   0.33303693  0.01086093  0.36236510
   0.50463000  0.16850000  0.06120000
   0.83272000  0.16670000  0.06193000
   0.00004000  0.33467000  0.00213000
   0.00326769  0.33465475  0.35998961
   0.16757000  0.49895000  0.06268000
   0.50099000  0.49896000  0.06206000
   0.83393000  0.50234000  0.06235000
   0.00121000  0.66785000  0.00188000
   0.99418652  0.66459966  0.36061918
   0.16792000  0.83462000  0.06228000
   0.33437000  0.66664000  0.00225000
   0.50152000  0.83563000  0.06217000
   0.66753000  0.66705000  0.00175000
   0.66753823  0.66550726  0.35901763
   0.83293000  0.83584000  0.06235000
   0.00121000  0.00098000  0.12225000
   0.16700000  0.16811000  0.18239000
   0.33470000  0.00227000  0.12192000
   0.50174000  0.16716000  0.18263000
   0.83421000  0.16639000  0.18283000
   0.16964000  0.49868000  0.18209000
   0.50219000  0.50081000  0.18317000
   0.66741000  0.33395000  0.12233000
   0.83134000  0.50253000  0.18283000
   0.00132000  0.66795000  0.12253000
   0.16898000  0.83509000  0.18243000
   0.33446000  0.66703000  0.12223000
   0.49971000  0.83538000  0.18278000
   0.66698000  0.66840000  0.12259000
   0.83488000  0.83403000  0.18294000
   0.33558000  0.99863000  0.24353000
   0.66801000  0.33262000  0.24229000
   0.00448000  0.66739000  0.24217000
   0.49701691  0.83448574  0.30356043
   0.66521000  0.67351000  0.24327000
   0.66620000  0.99680000  0.00000000
   0.65727097  0.99743152  0.36434435
   0.33213000  0.33386000  0.00135000
   0.34155718  0.32743313  0.36244897
   0.67040000  0.33673000  0.00321000
   0.65923397  0.33127924  0.36690304
   0.66728000  0.99998000  0.12246000
   0.99806000  0.33495000  0.12235000
   0.33675000  0.33238000  0.12261000
Direct configuration=    11
   0.00086000  0.99993000  0.24271000
   0.16513139  0.16620616  0.30294646
   0.49957782  0.16145980  0.30050711
   0.66822000  0.00107000  0.24272000
   0.83542379  0.16717991  0.30201650
   0.00044000  0.33497000  0.24240000
   0.17003908  0.50379023  0.30441105
   0.33469000  0.33305000  0.24267000
   0.49788503  0.50684889  0.30263088
   0.83351914  0.49960215  0.30147609
   0.16981536  0.83123219  0.30448700
   0.33342000  0.66555000  0.24261000
   0.83565399  0.83333809  0.30203762
   0.00064000  0.00119000  0.00199000
   0.00175746  0.00136659  0.36014804
   0.16843000  0.16962000  0.06269000
   0.33460000  0.00297000  0.00254000
   0.33303161  0.01077395  0.36233323
   0.50463000  0.16850000  0.06120000
   0.83272000  0.16670000  0.06193000
   0.00004000  0.33467000  0.00213000
   0.00328465  0.33456505  0.35989896
   0.16757000  0.49895000  0.06268000
   0.50099000  0.49896000  0.06206000
   0.83393000  0.50234000  0.06235000
   0.00121000  0.66785000  0.00188000
   0.99404528  0.66457824  0.36058294
   0.16792000  0.83462000  0.06228000
   0.33437000  0.66664000  0.00225000
   0.50152000  0.83563000  0.06217000
   0.66753000  0.66705000  0.00175000
   0.66764564  0.66559023  0.35900676
   0.83293000  0.83584000  0.06235000
   0.00121000  0.00098000  0.12225000
   0.16700000  0.16811000  0.18239000
   0.33470000  0.00227000  0.12192000
   0.50174000  0.16716000  0.18263000
   0.83421000  0.16639000  0.18283000
   0.16964000  0.49868000  0.18209000
   0.50219000  0.50081000  0.18317000
   0.66741000  0.33395000  0.12233000
   0.83134000  0.50253000  0.18283000
   0.00132000  0.66795000  0.12253000
   0.16898000  0.83509000  0.18243000
   0.33446000  0.66703000  0.12223000
   0.49971000  0.83538000  0.18278000
   0.66698000  0.66840000  0.12259000
   0.83488000  0.83403000  0.18294000
   0.33558000  0.99863000  0.24353000
   0.66801000  0.33262000  0.24229000
   0.00448000  0.66739000  0.24217000
   0.49704400  0.83448806  0.30354939
   0.66521000  0.67351000  0.24327000
   0.66620000  0.99680000  0.00000000
   0.65738369  0.99738666  0.36440856
   0.33213000  0.33386000  0.00135000
   0.34163686  0.32748503  0.36240262
   0.67040000  0.33673000  0.00321000
   0.65915970  0.33116023  0.36694844
   0.66728000  0.99998000  0.12246000
   0.99806000  0.33495000  0.12235000
   0.33675000  0.33238000  0.12261000
Direct configuration=    12
   0.00086000  0.99993000  0.24271000
   0.16521989  0.16622150  0.30293440
   0.49963777  0.16148625  0.30051446
   0.66822000  0.00107000  0.24272000
   0.83535791  0.16712096  0.30203410
   0.00044000  0.33497000  0.24240000
   0.16997473  0.50379146  0.30434858
   0.33469000  0.33305000  0.24267000
   0.49805594  0.50694237  0.30262836
   0.83342304  0.49960484  0.30150735
   0.16980421  0.83127602  0.30446606
   0.33342000  0.66555000  0.24261000
   0.83562557  0.83331703  0.30206291
   0.00064000  0.00119000  0.00199000
   0.00186190  0.00134128  0.36016985
   0.16843000  0.16962000  0.06269000
   0.33460000  0.00297000  0.00254000
   0.33302677  0.01069486  0.36230424
   0.50463000  0.16850000  0.06120000
   0.83272000  0.16670000  0.06193000
   0.00004000  0.33467000  0.00213000
   0.00330007  0.33448349  0.35981654
   0.16757000  0.49895000  0.06268000
   0.50099000  0.49896000  0.06206000
   0.83393000  0.50234000  0.06235000
   0.00121000  0.66785000  0.00188000
   0.99391685  0.66455876  0.36054999
   0.16792000  0.83462000  0.06228000
   0.33437000  0.66664000  0.00225000
   0.50152000  0.83563000  0.06217000
   0.66753000  0.66705000  0.00175000
   0.66774332  0.66566567  0.35899689
   0.83293000  0.83584000  0.06235000
   0.00121000  0.00098000  0.12225000
   0.16700000  0.16811000  0.18239000
   0.33470000  0.00227000  0.12192000
   0.50174000  0.16716000  0.18263000
   0.83421000  0.16639000  0.18283000
   0.16964000  0.49868000  0.18209000
   0.50219000  0.50081000  0.18317000
   0.66741000  0.33395000  0.12233000
   0.83134000  0.50253000  0.18283000
   0.00132000  0.66795000  0.12253000
   0.16898000  0.83509000  0.18243000
   0.33446000  0.66703000  0.12223000
   0.49971000  0.83538000  0.18278000
   0.66698000  0.66840000  0.12259000
   0.83488000  0.83403000  0.18294000
   0.33558000  0.99863000  0.24353000
   0.66801000  0.33262000  0.24229000
   0.00448000  0.66739000  0.24217000
   0.49706864  0.83449017  0.30353935
   0.66521000  0.67351000  0.24327000
   0.66620000  0.99680000  0.00000000
   0.65748618  0.99734588  0.36446695
   0.33213000  0.33386000  0.00135000
   0.34170932  0.32753222  0.36236048
   0.67040000  0.33673000  0.00321000
   0.65909217  0.33105201  0.36698972
   0.66728000  0.99998000  0.12246000
   0.99806000  0.33495000  0.12235000
   0.33675000  0.33238000  0.12261000
Direct configuration=    13
   0.00086000  0.99993000  0.24271000
   0.16519331  0.16621689  0.30293802
   0.49961976  0.16147830  0.30051226
   0.66822000  0.00107000  0.24272000
   0.83537769  0.16713867  0.30202882
   0.00044000  0.33497000  0.24240000
   0.16999405  0.50379109  0.30436734
   0.33469000  0.33305000  0.24267000
   0.49800461  0.50691429  0.30262912
   0.83345190  0.49960403  0.30149796
   0.16980756  0.83126285  0.30447235
   0.33342000  0.66555000  0.24261000
   0.83563410  0.83332336  0.30205531
   0.00064000  0.00119000  0.00199000
   0.00183053  0.00134888  0.36016330
   0.16843000  0.16962000  0.06269000
   0.33460000  0.00297000  0.00254000
   0.33302822  0.01071861  0.36231294
   0.50463000  0.16850000  0.06120000
   0.83272000  0.16670000  0.06193000
   0.00004000  0.33467000  0.00213000
   0.00329544  0.33450798  0.35984129
   0.16757000  0.49895000  0.06268000
   0.50099000  0.49896000  0.06206000
   0.83393000  0.50234000  0.06235000
   0.00121000  0.66785000  0.00188000
   0.99395542  0.66456461  0.36055989
   0.16792000  0.83462000  0.06228000
   0.33437000  0.66664000  0.00225000
   0.50152000  0.83563000  0.06217000