  62  62   0   0
  0.2759182E+02  0.8532700E-09  0.8497000E-09  0.2359500E-08  0.5000000E-15
  1.000000000000000E-004
  CAR 
 ni3al                                   
      5.20883750    -45.87395192  301      0.80013958      1.00000000
    -45.874  0.0000E+00  0.0000E+00  0.0000E+00  0.0000E+00
    -45.704  0.0000E+00  0.0000E+00  0.0000E+00  0.0000E+00
    -45.533  0.0000E+00  0.0000E+00  0.0000E+00  0.0000E+00
    -45.363  0.0000E+00  0.0000E+00  0.0000E+00  0.0000E+00
    -45.193  0.0000E+00  0.0000E+00  0.0000E+00  0.0000E+00
    -45.023  0.0000E+00  0.0000E+00  0.0000E+00  0.0000E+00
    -44.852  0.0000E+00 -0.1170E-33  0.0000E+00 -0.1992E-34
    -44.682  0.0000E+00 -0.1016E-25  0.0000E+00 -0.1730E-26
    -44.512  0.0000E+00 -0.6658E-19  0.0000E+00 -0.1134E-19
    -44.341 -0.1377E-36 -0.3186E-13 -0.2344E-37 -0.5425E-14
    -44.171 -0.3288E-28 -0.1178E-08 -0.5598E-29 -0.2006E-09
    -44.001 -0.5265E-21 -0.3271E-05 -0.8965E-22 -0.5572E-06
    -43.831 -0.6204E-15 -0.6427E-03 -0.1056E-15 -0.1100E-03
    -43.660 -0.5630E-10 -0.3538E-02 -0.9587E-11 -0.7125E-03
    -43.490 -0.3802E-06  0.7630E-01 -0.6475E-07  0.1228E-01
    -43.320 -0.1818E-03  0.1879E+00 -0.3102E-04  0.4428E-01
    -43.150 -0.4208E-02  0.1548E+00 -0.7475E-03  0.7063E-01
    -42.979  0.4484E-01  0.6920E-01  0.6887E-02  0.8241E-01
    -42.809  0.1264E+00  0.4331E-01  0.2841E-01  0.8979E-01
    -42.639  0.1028E-01  0.1938E-02  0.3016E-01  0.9012E-01
    -42.468  0.1832E-01 -0.6779E-03  0.3328E-01  0.9000E-01
    -42.298  0.3496E-01 -0.8069E-05  0.3924E-01  0.9000E-01
    -42.128  0.1373E-01 -0.2069E-05  0.4158E-01  0.9000E-01
    -41.958  0.1918E+00 -0.2824E-03  0.7424E-01  0.8995E-01
    -41.787  0.1982E+00 -0.9264E-04  0.1080E+00  0.8994E-01
    -41.617  0.1498E-01  0.2600E-01  0.1105E+00  0.9436E-01
    -41.447 -0.3146E-02  0.3250E-01  0.1100E+00  0.9990E-01
    -41.277 -0.7500E-04  0.1055E-02  0.1100E+00  0.1001E+00
    -41.106 -0.1108E-06 -0.4432E-03  0.1100E+00  0.1000E+00
    -40.936 -0.1835E-06 -0.1939E-03  0.1100E+00  0.9997E-01
    -40.766 -0.7796E-04 -0.8290E-03  0.1100E+00  0.9983E-01
    -40.595 -0.1719E-02  0.2450E-01  0.1097E+00  0.1040E+00
    -40.425  0.1610E-01  0.1649E-01  0.1124E+00  0.1068E+00
    -40.255  0.7419E-01  0.1473E-01  0.1251E+00  0.1093E+00
    -40.085  0.3085E-01  0.4187E-01  0.1303E+00  0.1164E+00
    -39.914 -0.1663E-02  0.4468E-01  0.1300E+00  0.1240E+00
    -39.744 -0.2294E-03  0.3163E-01  0.1300E+00  0.1294E+00
    -39.574 -0.1130E-05  0.4000E-02  0.1300E+00  0.1301E+00
    -39.403 -0.3753E-09 -0.6675E-03  0.1300E+00  0.1300E+00
    -39.233 -0.8861E-14 -0.1414E-04  0.1300E+00  0.1300E+00
    -39.063  0.0000E+00 -0.1581E-07  0.1300E+00  0.1300E+00
    -38.893  0.0000E+00 -0.1184E-11  0.1300E+00  0.1300E+00
    -38.722  0.0000E+00 -0.4347E-17  0.1300E+00  0.1300E+00
    -38.552  0.0000E+00  0.0000E+00  0.1300E+00  0.1300E+00
    -38.382  0.0000E+00  0.0000E+00  0.1300E+00  0.1300E+00
    -38.212  0.0000E+00  0.0000E+00  0.1300E+00  0.1300E+00
    -38.041  0.0000E+00  0.0000E+00  0.1300E+00  0.1300E+00
    -37.871  0.0000E+00  0.0000E+00  0.1300E+00  0.1300E+00
    -37.701  0.0000E+00  0.0000E+00  0.1300E+00  0.1300E+00
    -37.530  0.0000E+00  0.0000E+00  0.1300E+00  0.1300E+00
    -37.360  0.0000E+00  0.0000E+00  0.1300E+00  0.1300E+00
    -37.190  0.0000E+00  0.0000E+00  0.1300E+00  0.1300E+00
    -37.020  0.0000E+00  0.0000E+00  0.1300E+00  0.1300E+00
    -36.849  0.0000E+00  0.0000E+00  0.1300E+00  0.1300E+00
    -36.679  0.0000E+00  0.0000E+00  0.1300E+00  0.1300E+00
    -36.509  0.0000E+00  0.0000E+00  0.1300E+00  0.1300E+00
    -36.338  0.0000E+00  0.0000E+00  0.1300E+00  0.1300E+00
    -36.168  0.0000E+00  0.0000E+00  0.1300E+00  0.1300E+00
    -35.998  0.0000E+00  0.0000E+00  0.1300E+00  0.1300E+00
    -35.828  0.0000E+00  0.0000E+00  0.1300E+00  0.1300E+00
    -35.657  0.0000E+00  0.0000E+00  0.1300E+00  0.1300E+00
    -35.487  0.0000E+00  0.0000E+00  0.1300E+00  0.1300E+00
    -35.317  0.0000E+00  0.0000E+00  0.1300E+00  0.1300E+00
    -35.147  0.0000E+00  0.0000E+00  0.1300E+00  0.1300E+00
    -34.976  0.0000E+00  0.0000E+00  0.1300E+00  0.1300E+00
    -34.806  0.0000E+00  0.0000E+00  0.1300E+00  0.1300E+00
    -34.636  0.0000E+00  0.0000E+00  0.1300E+00  0.1300E+00
    -34.465  0.0000E+00  0.0000E+00  0.1300E+00  0.1300E+00
    -34.295  0.0000E+00  0.0000E+00  0.1300E+00  0.1300E+00
    -34.125  0.0000E+00  0.0000E+00  0.1300E+00  0.1300E+00
    -33.955  0.0000E+00  0.0000E+00  0.1300E+00  0.1300E+00
    -33.784  0.0000E+00  0.0000E+00  0.1300E+00  0.1300E+00
    -33.614  0.0000E+00  0.0000E+00  0.1300E+00  0.1300E+00
    -33.444  0.0000E+00  0.0000E+00  0.1300E+00  0.1300E+00
    -33.274  0.0000E+00  0.0000E+00  0.1300E+00  0.1300E+00
    -33.103  0.0000E+00  0.0000E+00  0.1300E+00  0.1300E+00
    -32.933  0.0000E+00  0.0000E+00  0.1300E+00  0.1300E+00
    -32.763  0.0000E+00  0.0000E+00  0.1300E+00  0.1300E+00
    -32.592  0.0000E+00  0.0000E+00  0.1300E+00  0.1300E+00
    -32.422  0.0000E+00  0.0000E+00  0.1300E+00  0.1300E+00
    -32.252  0.0000E+00  0.0000E+00  0.1300E+00  0.1300E+00
    -32.082  0.0000E+00  0.0000E+00  0.1300E+00  0.1300E+00
    -31.911  0.0000E+00  0.0000E+00  0.1300E+00  0.1300E+00
    -31.741  0.0000E+00  0.0000E+00  0.1300E+00  0.1300E+00
    -31.571  0.0000E+00  0.0000E+00  0.1300E+00  0.1300E+00
    -31.400  0.0000E+00  0.0000E+00  0.1300E+00  0.1300E+00
    -31.230  0.0000E+00  0.0000E+00  0.1300E+00  0.1300E+00
    -31.060  0.0000E+00  0.0000E+00  0.1300E+00  0.1300E+00
    -30.890  0.0000E+00  0.0000E+00  0.1300E+00  0.1300E+00
    -30.719  0.0000E+00  0.0000E+00  0.1300E+00  0.1300E+00
    -30.549  0.0000E+00  0.0000E+00  0.1300E+00  0.1300E+00
    -30.379  0.0000E+00  0.0000E+00  0.1300E+00  0.1300E+00
    -30.209  0.0000E+00  0.0000E+00  0.1300E+00  0.1300E+00
    -30.038  0.0000E+00  0.0000E+00  0.1300E+00  0.1300E+00
    -29.868  0.0000E+00  0.0000E+00  0.1300E+00  0.1300E+00
    -29.698  0.0000E+00  0.0000E+00  0.1300E+00  0.1300E+00
    -29.527  0.0000E+00  0.0000E+00  0.1300E+00  0.1300E+00
    -29.357  0.0000E+00  0.0000E+00  0.1300E+00  0.1300E+00
    -29.187  0.0000E+00  0.0000E+00  0.1300E+00  0.1300E+00
    -29.017  0.0000E+00  0.0000E+00  0.1300E+00  0.1300E+00
    -28.846  0.0000E+00  0.0000E+00  0.1300E+00  0.1300E+00
    -28.676  0.0000E+00  0.0000E+00  0.1300E+00  0.1300E+00
    -28.506  0.0000E+00  0.0000E+00  0.1300E+00  0.1300E+00
    -28.336  0.0000E+00  0.0000E+00  0.1300E+00  0.1300E+00
    -28.165  0.0000E+00  0.0000E+00  0.1300E+00  0.1300E+00
    -27.995  0.0000E+00  0.0000E+00  0.1300E+00  0.1300E+00
    -27.825  0.0000E+00  0.0000E+00  0.1300E+00  0.1300E+00
    -27.654  0.0000E+00  0.0000E+00  0.1300E+00  0.1300E+00
    -27.484  0.0000E+00  0.0000E+00  0.1300E+00  0.1300E+00
    -27.314  0.0000E+00  0.0000E+00  0.1300E+00  0.1300E+00
    -27.144  0.0000E+00  0.0000E+00  0.1300E+00  0.1300E+00
    -26.973  0.0000E+00  0.0000E+00  0.1300E+00  0.1300E+00
    -26.803  0.0000E+00  0.0000E+00  0.1300E+00  0.1300E+00
    -26.633  0.0000E+00  0.0000E+00  0.1300E+00  0.1300E+00
    -26.462  0.0000E+00  0.0000E+00  0.1300E+00  0.1300E+00
    -26.292  0.0000E+00  0.0000E+00  0.1300E+00  0.1300E+00
    -26.122  0.0000E+00  0.0000E+00  0.1300E+00  0.1300E+00
    -25.952  0.0000E+00  0.0000E+00  0.1300E+00  0.1300E+00
    -25.781  0.0000E+00  0.0000E+00  0.1300E+00  0.1300E+00
    -25.611  0.0000E+00  0.0000E+00  0.1300E+00  0.1300E+00
    -25.441  0.0000E+00  0.0000E+00  0.1300E+00  0.1300E+00
    -25.271  0.0000E+00  0.0000E+00  0.1300E+00  0.1300E+00
    -25.100  0.0000E+00  0.0000E+00  0.1300E+00  0.1300E+00
    -24.930  0.0000E+00  0.0000E+00  0.1300E+00  0.1300E+00
    -24.760  0.0000E+00  0.0000E+00  0.1300E+00  0.1300E+00
    -24.589  0.0000E+00  0.0000E+00  0.1300E+00  0.1300E+00
    -24.419  0.0000E+00  0.0000E+00  0.1300E+00  0.1300E+00
    -24.249  0.0000E+00  0.0000E+00  0.1300E+00  0.1300E+00
    -24.079  0.0000E+00  0.0000E+00  0.1300E+00  0.1300E+00
    -23.908  0.0000E+00  0.0000E+00  0.1300E+00  0.1300E+00
    -23.738  0.0000E+00  0.0000E+00  0.1300E+00  0.1300E+00
    -23.568  0.0000E+00  0.0000E+00  0.1300E+00  0.1300E+00
    -23.398  0.0000E+00  0.0000E+00  0.1300E+00  0.1300E+00
    -23.227  0.0000E+00  0.0000E+00  0.1300E+00  0.1300E+00
    -23.057  0.0000E+00  0.0000E+00  0.1300E+00  0.1300E+00
    -22.887  0.0000E+00  0.0000E+00  0.1300E+00  0.1300E+00
    -22.716  0.0000E+00  0.0000E+00  0.1300E+00  0.1300E+00
    -22.546  0.0000E+00  0.0000E+00  0.1300E+00  0.1300E+00
    -22.376  0.0000E+00  0.0000E+00  0.1300E+00  0.1300E+00
    -22.206  0.0000E+00  0.0000E+00  0.1300E+00  0.1300E+00
    -22.035  0.0000E+00  0.0000E+00  0.1300E+00  0.1300E+00
    -21.865  0.0000E+00  0.0000E+00  0.1300E+00  0.1300E+00
    -21.695  0.0000E+00  0.0000E+00  0.1300E+00  0.1300E+00
    -21.524  0.0000E+00  0.0000E+00  0.1300E+00  0.1300E+00
    -21.354  0.0000E+00  0.0000E+00  0.1300E+00  0.1300E+00
    -21.184  0.0000E+00  0.0000E+00  0.1300E+00  0.1300E+00
    -21.014  0.0000E+00  0.0000E+00  0.1300E+00  0.1300E+00
    -20.843  0.0000E+00  0.0000E+00  0.1300E+00  0.1300E+00
    -20.673  0.0000E+00  0.0000E+00  0.1300E+00  0.1300E+00
    -20.503  0.0000E+00  0.0000E+00  0.1300E+00  0.1300E+00
    -20.333  0.0000E+00  0.0000E+00  0.1300E+00  0.1300E+00
    -20.162  0.0000E+00  0.0000E+00  0.1300E+00  0.1300E+00
    -19.992  0.0000E+00  0.0000E+00  0.1300E+00  0.1300E+00
    -19.822  0.0000E+00  0.0000E+00  0.1300E+00  0.1300E+00
    -19.651  0.0000E+00  0.0000E+00  0.1300E+00  0.1300E+00
    -19.481  0.0000E+00  0.0000E+00  0.1300E+00  0.1300E+00
    -19.311  0.0000E+00  0.0000E+00  0.1300E+00  0.1300E+00
    -19.141  0.0000E+00  0.0000E+00  0.1300E+00  0.1300E+00
    -18.970  0.0000E+00  0.0000E+00  0.1300E+00  0.1300E+00
    -18.800  0.0000E+00  0.0000E+00  0.1300E+00  0.1300E+00
    -18.630  0.0000E+00  0.0000E+00  0.1300E+00  0.1300E+00
    -18.460  0.0000E+00  0.0000E+00  0.1300E+00  0.1300E+00
    -18.289  0.0000E+00  0.0000E+00  0.1300E+00  0.1300E+00
    -18.119  0.0000E+00  0.0000E+00  0.1300E+00  0.1300E+00
    -17.949  0.0000E+00  0.0000E+00  0.1300E+00  0.1300E+00
    -17.778  0.0000E+00  0.0000E+00  0.1300E+00  0.1300E+00
    -17.608  0.0000E+00  0.0000E+00  0.1300E+00  0.1300E+00
    -17.438  0.0000E+00  0.0000E+00  0.1300E+00  0.1300E+00
    -17.268  0.0000E+00  0.0000E+00  0.1300E+00  0.1300E+00
    -17.097  0.0000E+00  0.0000E+00  0.1300E+00  0.1300E+00
    -16.927  0.0000E+00  0.0000E+00  0.1300E+00  0.1300E+00
    -16.757  0.0000E+00  0.0000E+00  0.1300E+00  0.1300E+00
    -16.586  0.0000E+00  0.0000E+00  0.1300E+00  0.1300E+00
    -16.416  0.0000E+00  0.0000E+00  0.1300E+00  0.1300E+00
    -16.246  0.0000E+00  0.0000E+00  0.1300E+00  0.1300E+00
    -16.076  0.0000E+00  0.0000E+00  0.1300E+00  0.1300E+00
    -15.905  0.0000E+00  0.0000E+00  0.1300E+00  0.1300E+00
    -15.735  0.0000E+00  0.0000E+00  0.1300E+00  0.1300E+00
    -15.565  0.0000E+00  0.0000E+00  0.1300E+00  0.1300E+00
    -15.395  0.0000E+00  0.0000E+00  0.1300E+00  0.1300E+00
    -15.224  0.0000E+00  0.0000E+00  0.1300E+00  0.1300E+00
    -15.054  0.0000E+00  0.0000E+00  0.1300E+00  0.1300E+00
    -14.884  0.0000E+00  0.0000E+00  0.1300E+00  0.1300E+00
    -14.713  0.0000E+00  0.0000E+00  0.1300E+00  0.1300E+00
    -14.543  0.0000E+00  0.0000E+00  0.1300E+00  0.1300E+00
    -14.373  0.0000E+00  0.0000E+00  0.1300E+00  0.1300E+00
    -14.203  0.0000E+00  0.0000E+00  0.1300E+00  0.1300E+00
    -14.032  0.0000E+00  0.0000E+00  0.1300E+00  0.1300E+00
    -13.862  0.0000E+00  0.0000E+00  0.1300E+00  0.1300E+00
    -13.692  0.0000E+00  0.0000E+00  0.1300E+00  0.1300E+00
    -13.522  0.0000E+00  0.0000E+00  0.1300E+00  0.1300E+00
    -13.351  0.0000E+00  0.0000E+00  0.1300E+00  0.1300E+00
    -13.181  0.0000E+00  0.0000E+00  0.1300E+00  0.1300E+00
    -13.011  0.0000E+00  0.0000E+00  0.1300E+00  0.1300E+00
    -12.840  0.0000E+00  0.0000E+00  0.1300E+00  0.1300E+00
    -12.670  0.0000E+00  0.0000E+00  0.1300E+00  0.1300E+00
    -12.500  0.0000E+00  0.0000E+00  0.1300E+00  0.1300E+00
    -12.330  0.0000E+00  0.0000E+00  0.1300E+00  0.1300E+00
    -12.159  0.0000E+00  0.0000E+00  0.1300E+00  0.1300E+00
    -11.989  0.0000E+00  0.0000E+00  0.1300E+00  0.1300E+00
    -11.819  0.0000E+00  0.0000E+00  0.1300E+00  0.1300E+00
    -11.648  0.0000E+00  0.0000E+00  0.1300E+00  0.1300E+00
    -11.478  0.0000E+00  0.0000E+00  0.1300E+00  0.1300E+00
    -11.308  0.0000E+00  0.0000E+00  0.1300E+00  0.1300E+00
    -11.138  0.0000E+00  0.0000E+00  0.1300E+00  0.1300E+00
    -10.967  0.0000E+00  0.0000E+00  0.1300E+00  0.1300E+00
    -10.797  0.0000E+00  0.0000E+00  0.1300E+00  0.1300E+00
    -10.627  0.0000E+00  0.0000E+00  0.1300E+00  0.1300E+00
    -10.457  0.0000E+00  0.0000E+00  0.1300E+00  0.1300E+00
    -10.286  0.0000E+00  0.0000E+00  0.1300E+00  0.1300E+00
    -10.116  0.0000E+00  0.0000E+00  0.1300E+00  0.1300E+00
     -9.946  0.0000E+00  0.0000E+00  0.1300E+00  0.1300E+00
     -9.775  0.0000E+00  0.0000E+00  0.1300E+00  0.1300E+00
     -9.605  0.0000E+00  0.0000E+00  0.1300E+00  0.1300E+00
     -9.435  0.0000E+00  0.0000E+00  0.1300E+00  0.1300E+00
     -9.265  0.0000E+00  0.0000E+00  0.1300E+00  0.1300E+00
     -9.094  0.0000E+00  0.0000E+00  0.1300E+00  0.1300E+00
     -8.924  0.0000E+00  0.0000E+00  0.1300E+00  0.1300E+00
     -8.754 -0.7751E-37  0.0000E+00  0.1300E+00  0.1300E+00
     -8.584 -0.1179E-28 -0.2401E-33  0.1300E+00  0.1300E+00
     -8.413 -0.1333E-21 -0.1259E-25  0.1300E+00  0.1300E+00
     -8.243 -0.1076E-15 -0.4894E-19  0.1300E+00  0.1300E+00
     -8.073 -0.6411E-11 -0.1344E-13  0.1300E+00  0.1300E+00
     -7.902 -0.2654E-07 -0.2700E-09  0.1300E+00  0.1300E+00
     -7.732 -0.6944E-05 -0.3664E-06  0.1300E+00  0.1300E+00
     -7.562 -0.7209E-04 -0.2871E-04  0.1300E+00  0.1300E+00
     -7.392  0.8295E-03  0.2708E-04  0.1301E+00  0.1300E+00
     -7.221  0.4737E-02  0.2130E-02  0.1309E+00  0.1304E+00
     -7.051  0.4967E-02  0.5819E-02  0.1318E+00  0.1314E+00
     -6.881  0.2391E-02  0.3109E-02  0.1322E+00  0.1319E+00
     -6.710  0.8750E-02  0.4292E-02  0.1337E+00  0.1326E+00
     -6.540  0.4175E-02  0.9110E-02  0.1344E+00  0.1342E+00
     -6.370  0.2964E-02  0.1252E-02  0.1349E+00  0.1344E+00
     -6.200  0.1231E-01  0.4587E-02  0.1370E+00  0.1352E+00
     -6.029  0.1352E-01  0.1362E-01  0.1393E+00  0.1375E+00
     -5.859  0.9073E-02  0.1225E-01  0.1408E+00  0.1396E+00
     -5.689  0.1174E-01  0.7228E-02  0.1428E+00  0.1408E+00
     -5.519  0.6624E-02  0.1400E-01  0.1440E+00  0.1432E+00
     -5.348  0.1191E-01  0.4319E-02  0.1460E+00  0.1439E+00
     -5.178  0.2094E-01  0.1042E-01  0.1496E+00  0.1457E+00
     -5.008  0.1458E-01  0.2081E-01  0.1520E+00  0.1492E+00
     -4.837  0.1833E-01  0.1097E-01  0.1552E+00  0.1511E+00
     -4.667  0.2065E-01  0.1693E-01  0.1587E+00  0.1540E+00
     -4.497  0.2747E-01  0.1150E-01  0.1634E+00  0.1559E+00
     -4.327  0.3119E-01  0.2208E-01  0.1687E+00  0.1597E+00
     -4.156  0.5311E-01  0.2765E-01  0.1777E+00  0.1644E+00
     -3.986  0.7046E-01  0.2082E-01  0.1897E+00  0.1680E+00
     -3.816  0.1089E+00  0.2584E-01  0.2082E+00  0.1724E+00
     -3.646  0.1219E+00  0.2104E-01  0.2290E+00  0.1759E+00
     -3.475  0.1391E+00  0.3945E-01  0.2527E+00  0.1827E+00
     -3.305  0.1870E+00  0.5220E-01  0.2845E+00  0.1915E+00
     -3.135  0.1522E+00  0.6285E-01  0.3105E+00  0.2022E+00
     -2.964  0.1321E+00  0.7499E-01  0.3330E+00  0.2150E+00
     -2.794  0.1881E+00  0.6399E-01  0.3650E+00  0.2259E+00
     -2.624  0.2573E+00  0.7321E-01  0.4088E+00  0.2384E+00
     -2.454  0.2478E+00  0.9263E-01  0.4510E+00  0.2541E+00
     -2.283  0.2249E+00  0.9875E-01  0.4893E+00  0.2710E+00
     -2.113  0.2275E+00  0.1105E+00  0.5280E+00  0.2898E+00
     -1.943  0.2183E+00  0.1216E+00  0.5652E+00  0.3105E+00
     -1.772  0.2316E+00  0.1120E+00  0.6046E+00  0.3295E+00
     -1.602  0.2317E+00  0.1359E+00  0.6441E+00  0.3527E+00
     -1.432  0.2037E+00  0.1780E+00  0.6788E+00  0.3830E+00
     -1.262  0.1623E+00  0.1714E+00  0.7064E+00  0.4122E+00
     -1.091  0.1625E+00  0.1656E+00  0.7341E+00  0.4404E+00
     -0.921  0.1768E+00  0.1689E+00  0.7642E+00  0.4691E+00
     -0.751  0.2332E+00  0.1952E+00  0.8039E+00  0.5024E+00
     -0.581  0.2966E+00  0.2147E+00  0.8544E+00  0.5389E+00
     -0.410  0.3170E+00  0.2130E+00  0.9084E+00  0.5752E+00
     -0.240  0.2584E+00  0.2036E+00  0.9524E+00  0.6099E+00
     -0.070  0.1900E+00  0.1626E+00  0.9848E+00  0.6376E+00
      0.101  0.1470E+00  0.1287E+00  0.1010E+01  0.6595E+00
      0.271  0.1351E+00  0.1082E+00  0.1033E+01  0.6779E+00
      0.441  0.1246E+00  0.9924E-01  0.1054E+01  0.6948E+00
      0.611  0.1264E+00  0.9880E-01  0.1076E+01  0.7116E+00
      0.782  0.9017E-01  0.1182E+00  0.1091E+01  0.7317E+00
      0.952  0.8443E-01  0.1496E+00  0.1105E+01  0.7572E+00
      1.122  0.1041E+00  0.1747E+00  0.1123E+01  0.7870E+00
      1.292  0.1185E+00  0.1787E+00  0.1143E+01  0.8174E+00
      1.463  0.1151E+00  0.2112E+00  0.1163E+01  0.8533E+00
      1.633  0.1225E+00  0.2393E+00  0.1184E+01  0.8941E+00
      1.803  0.7530E-01  0.2312E+00  0.1196E+01  0.9335E+00
      1.974  0.2249E-02  0.2742E+00  0.1197E+01  0.9801E+00
      2.144 -0.1034E-02  0.3086E+00  0.1197E+01  0.1033E+01
      2.314 -0.1524E-04  0.3217E+00  0.1197E+01  0.1087E+01
      2.484 -0.1947E-07  0.2979E+00  0.1197E+01  0.1138E+01
      2.655 -0.2232E-11  0.2164E+00  0.1197E+01  0.1175E+01
      2.825 -0.2038E-16  0.1173E+00  0.1197E+01  0.1195E+01
      2.995  0.0000E+00  0.1176E-01  0.1197E+01  0.1197E+01
      3.166  0.0000E+00 -0.1927E-02  0.1197E+01  0.1197E+01
      3.336  0.0000E+00 -0.8138E-04  0.1197E+01  0.1197E+01
      3.506  0.0000E+00 -0.2871E-06  0.1197E+01  0.1197E+01
      3.676  0.0000E+00 -0.8922E-10  0.1197E+01  0.1197E+01
      3.847  0.0000E+00 -0.2252E-14  0.1197E+01  0.1197E+01
      4.017  0.0000E+00  0.0000E+00  0.1197E+01  0.1197E+01
      4.187  0.0000E+00  0.0000E+00  0.1197E+01  0.1197E+01
      4.357  0.0000E+00  0.0000E+00  0.1197E+01  0.1197E+01
      4.528  0.0000E+00  0.0000E+00  0.1197E+01  0.1197E+01
      4.698  0.0000E+00  0.0000E+00  0.1197E+01  0.1197E+01
      4.868  0.0000E+00  0.0000E+00  0.1197E+01  0.1197E+01
      5.039  0.0000E+00  0.0000E+00  0.1197E+01  0.1197E+01
      5.209  0.0000E+00  0.0000E+00  0.1197E+01  0.1197E+01
