   62   62  300    2
  0.2759182E+02  0.8532700E-09  0.8497000E-09  0.2359500E-08  0.5000000E-15
  1.000000000000000E-004
  CAR 
 ni3al                                   
    548     10    359
 
  0.0000000E+00  0.0000000E+00  0.0000000E+00  0.6250000E-01
      1        -42.984168      -43.551993   1.000000   1.000000
      2        -42.965383      -43.526343   1.000000   1.000000
      3        -42.951630      -43.502246   1.000000   1.000000
      4        -42.944881      -43.488680   1.000000   1.000000
      5        -42.918195      -43.484729   1.000000   1.000000
      6        -42.904196      -43.474533   1.000000   1.000000
      7        -42.882785      -43.451016   1.000000   1.000000
      8        -42.879052      -43.427551   1.000000   1.000000
      9        -42.869655      -43.376394   1.000000   1.000000
     10        -42.493461      -43.371546   1.000000   1.000000
     11        -42.426311      -43.340682   1.000000   1.000000
     12        -42.376798      -43.339954   1.000000   1.000000
     13        -42.108763      -43.326264   1.000000   1.000000
     14        -42.080360      -43.321447   1.000000   1.000000
     15        -42.046791      -43.313925   1.000000   1.000000
     16        -42.018773      -43.305792   1.000000   1.000000
     17        -42.016623      -43.272588   1.000000   1.000000
     18        -42.010812      -43.246687   1.000000   1.000000
     19        -41.992675      -43.223734   1.000000   1.000000
     20        -41.975972      -43.209743   1.000000   1.000000
     21        -41.973052      -43.183774   1.000000   1.000000
     22        -41.959950      -43.150819   1.000000   1.000000
     23        -41.948698      -43.064019   1.000000   1.000000
     24        -41.947731      -43.058007   1.000000   1.000000
     25        -41.935874      -42.970591   1.000000   1.000000
     26        -41.929901      -42.936887   1.000000   1.000000
     27        -41.916677      -42.880800   1.000000   1.000000
     28        -41.914152      -41.680327   1.000000   1.000000
     29        -41.902510      -41.594243   1.000000   1.000000
     30        -41.896639      -41.536959   1.000000   1.000000
     31        -41.838905      -40.618086   1.000000   1.000000
     32        -41.822843      -40.609964   1.000000   1.000000
     33        -41.808975      -40.298225   1.000000   1.000000
     34        -40.426510      -40.181057   1.000000   1.000000
     35        -40.371237      -40.085764   1.000000   1.000000
     36        -40.316092      -40.084862   1.000000   1.000000
     37        -40.315038      -39.958326   1.000000   1.000000
     38        -40.276986      -39.893245   1.000000   1.000000
     39        -40.208596      -39.794794   1.000000   1.000000
     40         -7.414939       -7.314476   1.000000   1.000000
     41         -6.426310       -6.268084   1.000000   1.000000
     42         -5.458357       -5.260766   1.000000   1.000000
     43         -5.405011       -5.244680   1.000000   1.000000
     44         -5.386486       -5.234652   1.000000   1.000000
     45         -5.366321       -5.210623   1.000000   1.000000
     46         -5.119503       -4.834078   1.000000   1.000000
     47         -4.799956       -4.473720   1.000000   1.000000
     48         -4.761974       -4.471776   1.000000   1.000000
     49         -4.740345       -4.429973   1.000000   1.000000
     50         -4.715631       -4.367552   1.000000   1.000000
     51         -4.302936       -3.865459   1.000000   1.000000
     52         -4.297179       -3.860162   1.000000   1.000000
     53         -4.277831       -3.821775   1.000000   1.000000
     54         -4.272123       -3.760585   1.000000   1.000000
     55         -4.229101       -3.672900   1.000000   1.000000
     56         -4.211195       -3.659663   1.000000   1.000000
     57         -4.202882       -3.597889   1.000000   1.000000
     58         -4.154646       -3.495852   1.000000   1.000000
     59         -4.042438       -3.447205   1.000000   1.000000
     60         -4.015754       -3.077126   1.000000   1.000000
     61         -3.912061       -3.074420   1.000000   1.000000
     62         -3.819251       -3.016059   1.000000   1.000000
     63         -3.804565       -3.003343   1.000000   1.000000
     64         -3.773054       -2.973926   1.000000   1.000000
     65         -3.733215       -2.940649   1.000000   1.000000
     66         -3.677028       -2.904936   1.000000   1.000000
     67         -3.629479       -2.830423   1.000000   1.000000
     68         -3.595341       -2.804944   1.000000   1.000000
     69         -3.572726       -2.714999   1.000000   1.000000
     70         -3.557089       -2.579338   1.000000   1.000000
     71         -3.544561       -2.547683   1.000000   1.000000
     72         -3.529587       -2.531051   1.000000   1.000000
     73         -3.526132       -2.518986   1.000000   1.000000
     74         -3.508427       -2.505520   1.000000   1.000000
     75         -3.502511       -2.458833   1.000000   1.000000
     76         -3.474248       -2.422790   1.000000   1.000000
     77         -3.457637       -2.400803   1.000000   1.000000
     78         -3.438864       -2.378137   1.000000   1.000000
     79         -3.429415       -2.318874   1.000000   1.000000
     80         -3.407941       -2.299034   1.000000   1.000000
     81         -3.403024       -2.286540   1.000000   1.000000
     82         -3.390256       -2.253871   1.000000   1.000000
     83         -3.383899       -2.239585   1.000000   1.000000
     84         -3.334678       -2.212065   1.000000   1.000000
     85         -3.319600       -2.182362   1.000000   1.000000
     86         -3.294446       -2.162809   1.000000   1.000000
     87         -3.196689       -2.104639   1.000000   1.000000
     88         -3.142178       -2.077815   1.000000   1.000000
     89         -3.133206       -2.030356   1.000000   1.000000
     90         -3.128380       -1.980839   1.000000   1.000000
     91         -3.115823       -1.976052   1.000000   1.000000
     92         -3.095332       -1.957503   1.000000   1.000000
     93         -3.086870       -1.938513   1.000000   1.000000
     94         -3.068117       -1.921539   1.000000   1.000000
     95         -3.053159       -1.853574   1.000000   1.000000
     96         -3.029886       -1.820069   1.000000   1.000000
     97         -3.004857       -1.798627   1.000000   1.000000
     98         -2.987053       -1.776209   1.000000   1.000000
     99         -2.971558       -1.758803   1.000000   1.000000
    100         -2.931479       -1.725782   1.000000   1.000000
    101         -2.895572       -1.678333   1.000000   1.000000
    102         -2.878769       -1.668407   1.000000   1.000000
    103         -2.852064       -1.658414   1.000000   1.000000
    104         -2.807514       -1.624786   1.000000   1.000000
    105         -2.771738       -1.603776   1.000000   1.000000
    106         -2.768105       -1.595715   1.000000   1.000000
    107         -2.757611       -1.553095   1.000000   1.000000
    108         -2.743931       -1.547048   1.000000   1.000000
    109         -2.723485       -1.533771   1.000000   1.000000
    110         -2.718081       -1.517365   1.000000   1.000000
    111         -2.704237       -1.502369   1.000000   1.000000
    112         -2.700000       -1.468325   1.000000   1.000000
    113         -2.688105       -1.458197   1.000000   1.000000
    114         -2.682371       -1.433427   1.000000   1.000000
    115         -2.673476       -1.407915   1.000000   1.000000
    116         -2.665181       -1.386850   1.000000   1.000000
    117         -2.655588       -1.378011   1.000000   1.000000
    118         -2.650171       -1.357668   1.000000   1.000000
    119         -2.636807       -1.346511   1.000000   1.000000
    120         -2.624886       -1.327086   1.000000   1.000000
    121         -2.619691       -1.314256   1.000000   1.000000
    122         -2.606963       -1.308476   1.000000   1.000000
    123         -2.601164       -1.280763   1.000000   1.000000
    124         -2.582661       -1.266452   1.000000   1.000000
    125         -2.568716       -1.245883   1.000000   1.000000
    126         -2.558204       -1.231084   1.000000   1.000000
    127         -2.547231       -1.196597   1.000000   1.000000
    128         -2.542528       -1.174802   1.000000   1.000000
    129         -2.516442       -1.166767   1.000000   1.000000
    130         -2.512000       -1.149550   1.000000   1.000000
    131         -2.511761       -1.124990   1.000000   1.000000
    132         -2.478200       -1.109822   1.000000   1.000000
    133         -2.475688       -1.099111   1.000000   1.000000
    134         -2.469190       -1.082866   1.000000   1.000000
    135         -2.452401       -1.075246   1.000000   1.000000
    136         -2.443340       -1.058361   1.000000   1.000000
    137         -2.431274       -1.041493   1.000000   1.000000
    138         -2.415516       -1.021498   1.000000   1.000000
    139         -2.407767       -1.019746   1.000000   1.000000
    140         -2.391081       -0.986389   1.000000   1.000000
    141         -2.378311       -0.978818   1.000000   1.000000
    142         -2.370344       -0.960300   1.000000   1.000000
    143         -2.353988       -0.948144   1.000000   1.000000
    144         -2.340333       -0.921342   1.000000   1.000000
    145         -2.322561       -0.906191   1.000000   1.000000
    146         -2.310470       -0.897722   1.000000   1.000000
    147         -2.298100       -0.876186   1.000000   1.000000
    148         -2.279952       -0.860068   1.000000   1.000000
    149         -2.266277       -0.819747   1.000000   1.000000
    150         -2.246364       -0.816006   1.000000   1.000000
    151         -2.243735       -0.792736   1.000000   1.000000
    152         -2.239415       -0.777061   1.000000   1.000000
    153         -2.230124       -0.757655   1.000000   1.000000
    154         -2.209858       -0.734597   1.000000   1.000000
    155         -2.186851       -0.723497   1.000000   1.000000
    156         -2.178877       -0.717834   1.000000   1.000000
    157         -2.171532       -0.688823   1.000000   1.000000
    158         -2.143730       -0.673560   1.000000   1.000000
    159         -2.128638       -0.655700   1.000000   1.000000
    160         -2.114801       -0.636819   1.000000   1.000000
    161         -2.107230       -0.621990   1.000000   1.000000
    162         -2.098996       -0.592428   1.000000   1.000000
    163         -2.078953       -0.581483   1.000000   1.000000
    164         -2.071909       -0.560761   1.000000   1.000000
    165         -2.040306       -0.541839   1.000000   1.000000
    166         -2.034434       -0.531853   1.000000   1.000000
    167         -2.032877       -0.509565   1.000000   1.000000
    168         -1.999215       -0.496522   1.000000   1.000000
    169         -1.991967       -0.471401   1.000000   1.000000
    170         -1.976291       -0.446774   1.000000   1.000000
    171         -1.967724       -0.428864   1.000000   1.000000
    172         -1.942085       -0.426150   1.000000   1.000000
    173         -1.933831       -0.413120   1.000000   1.000000
    174         -1.918527       -0.387276   1.000000   1.000000
    175         -1.895357       -0.374544   1.000000   1.000000
    176         -1.888619       -0.352119   1.000000   1.000000
    177         -1.860736       -0.348297   1.000000   1.000000
    178         -1.847854       -0.338385   1.000000   1.000000
    179         -1.840936       -0.323759   1.000000   1.000000
    180         -1.814551       -0.299218   1.000000   1.000000
    181         -1.800703       -0.290172   1.000000   1.000000
    182         -1.795278       -0.243767   1.000000   1.000000
    183         -1.787978       -0.231326   1.000000   1.000000
    184         -1.758124       -0.216683   1.000000   1.000000
    185         -1.746787       -0.150591   1.000000   1.000000
    186         -1.723199       -0.135029   1.000000   1.000000
    187         -1.706374       -0.093073   1.000000   1.000000
    188         -1.683029       -0.041548   1.000000   1.000000
    189         -1.659163       -0.027180   1.000000   1.000000
    190         -1.643791        0.012763   1.000000   1.000000
    191         -1.618635        0.028405   1.000000   1.000000
    192         -1.606499        0.029565   1.000000   1.000000
    193         -1.590519        0.041796   1.000000   1.000000
    194         -1.567140        0.059905   1.000000   1.000000
    195         -1.542655        0.079034   1.000000   1.000000
    196         -1.529269        0.085422   1.000000   1.000000
    197         -1.519477        0.111108   1.000000   1.000000
    198         -1.500093        0.132574   1.000000   1.000000
    199         -1.496131        0.151149   1.000000   1.000000
    200         -1.470216        0.160878   1.000000   1.000000
    201         -1.458810        0.186032   1.000000   1.000000
    202         -1.443071        0.215519   1.000000   1.000000
    203         -1.419585        0.233760   1.000000   1.000001
    204         -1.411886        0.270947   1.000000   1.000004
    205         -1.390860        0.292257   1.000000   1.000009
    206         -1.364897        0.338598   1.000000   1.000060
    207         -1.339005        0.380941   1.000000   1.000281
    208         -1.322547        0.410397   1.000000   1.000738
    209         -1.311853        0.417043   1.000000   1.000907
    210         -1.285113        0.449552   1.000000   1.002323
    211         -1.271503        0.459219   1.000000   1.003007
    212         -1.260295        0.475005   1.000000   1.004484
    213         -1.241085        0.492178   1.000000   1.006709
    214         -1.234724        0.536230   1.000000   1.016040
    215         -1.209241        0.543491   1.000000   1.018071
    216         -1.208126        0.587201   1.000000   1.031034
    217         -1.187835        0.628435   1.000000   1.034359
    218         -1.182565        0.662158   1.000000   1.014690
    219         -1.162623        0.676960   1.000000   0.995274
    220         -1.132887        0.718713   1.000000   0.892716
    221         -1.119585        0.725079   1.000000   0.870319
    222         -1.092243        0.795215   1.000000   0.527769
    223         -1.082626        0.853058   1.000000   0.221044
    224         -1.055413        0.885211   1.000000   0.095276
    225         -1.039346        0.905750   1.000000   0.038714
    226         -1.028208        0.921573   1.000000   0.007548
    227         -0.985143        0.943520   1.000000  -0.019921
    228         -0.975050        0.958527   1.000000  -0.029999
    229         -0.943280        0.970175   1.000000  -0.034012
    230         -0.932468        0.971425   1.000000  -0.034277
    231         -0.919323        0.999513   1.000000  -0.034006
    232         -0.912218        1.034084   1.000000  -0.024934
    233         -0.897543        1.038121   1.000000  -0.023689
    234         -0.879400        1.048706   1.000000  -0.020452
    235         -0.873712        1.069907   1.000000  -0.014491
    236         -0.857307        1.074108   1.000000  -0.013435
    237         -0.837425        1.082586   1.000000  -0.011452
    238         -0.824646        1.101837   1.000000  -0.007706
    239         -0.813568        1.109573   1.000000  -0.006490
    240         -0.792515        1.121510   1.000000  -0.004912
    241         -0.783839        1.140125   1.000000  -0.003081
    242         -0.779097        1.174966   1.000000  -0.001164
    243         -0.747813        1.193826   1.000000  -0.000652
    244         -0.732046        1.199822   1.000000  -0.000538
    245         -0.719877        1.223147   1.000000  -0.000247
    246         -0.705835        1.231031   1.000000  -0.000187
    247         -0.697700        1.248017   1.000000  -0.000101
    248         -0.681878        1.282737   1.000000  -0.000026
    249         -0.675108        1.292638   1.000000  -0.000018
    250         -0.646247        1.312863   1.000000  -0.000007
    251         -0.643286        1.317681   1.000000  -0.000006
    252         -0.637560        1.322164   1.000000  -0.000005
    253         -0.631072        1.344319   1.000000  -0.000002
    254         -0.621846        1.358229   1.000000  -0.000001
    255         -0.618125        1.390113   1.000000  -0.000000
    256         -0.595907        1.408252   1.000000  -0.000000
    257         -0.594655        1.424496   1.000000  -0.000000
    258         -0.575435        1.427364   1.000000  -0.000000
    259         -0.571286        1.462402   1.000000  -0.000000
    260         -0.568320        1.463542   1.000000  -0.000000
    261         -0.561485        1.479598   1.000000  -0.000000
    262         -0.543428        1.484593   1.000000  -0.000000
    263         -0.540467        1.509955   1.000000  -0.000000
    264         -0.524426        1.525007   1.000000  -0.000000
    265         -0.519573        1.531803   1.000000  -0.000000
    266         -0.510442        1.546847   1.000000  -0.000000
    267         -0.498897        1.573202   1.000000  -0.000000
    268         -0.491085        1.588388   1.000000  -0.000000
    269         -0.473479        1.601388   1.000000  -0.000000
    270         -0.468371        1.616496   1.000000  -0.000000
    271         -0.456863        1.626326   1.000000  -0.000000
    272         -0.448390        1.654590   1.000000  -0.000000
    273         -0.443588        1.671546   1.000000  -0.000000
    274         -0.426630        1.676639   1.000000  -0.000000
    275         -0.414892        1.684380   1.000000  -0.000000
    276         -0.411209        1.702387   1.000000  -0.000000
    277         -0.401456        1.734990   1.000000  -0.000000
    278         -0.396297        1.757747   1.000000  -0.000000
    279         -0.392116        1.769361   1.000000  -0.000000
    280         -0.374451        1.782748   1.000000  -0.000000
    281         -0.349961        1.802523   1.000000  -0.000000
    282         -0.338600        1.816702   1.000000  -0.000000
    283         -0.319973        1.849162   1.000000  -0.000000
    284         -0.317244        1.858831   1.000000  -0.000000
    285         -0.311941        1.873969   1.000000  -0.000000
    286         -0.296864        1.879533   1.000000  -0.000000
    287         -0.286096        1.883734   1.000000  -0.000000
    288         -0.279082        1.906232   1.000000  -0.000000
    289         -0.255814        1.910243   1.000000  -0.000000
    290         -0.248505        1.924100   1.000000  -0.000000
    291         -0.224498        1.939125   1.000000  -0.000000
    292         -0.219079        1.951871   1.000000  -0.000000
    293         -0.198408        1.964939   1.000000  -0.000000
    294         -0.187575        1.986158   1.000000  -0.000000
    295         -0.154129        1.989142   1.000000  -0.000000
    296         -0.137138        1.999295   1.000000  -0.000000
    297         -0.090397        2.007695   1.000000  -0.000000
    298         -0.078989        2.016932   1.000000  -0.000000
    299         -0.035543        2.022089   1.000000  -0.000000
    300         -0.020616        2.036494   1.000000  -0.000000
    301          0.016810        2.045805   1.000000  -0.000000
    302          0.027375        2.053593   1.000000  -0.000000
    303          0.032480        2.062007   1.000000  -0.000000
    304          0.059882        2.076327   1.000000  -0.000000
    305          0.087227        2.079926   1.000000  -0.000000
    306          0.127902        2.092025   1.000000  -0.000000
    307          0.140595        2.101888   1.000000  -0.000000
    308          0.147237        2.103245   1.000000  -0.000000
    309          0.157073        2.109377   1.000000  -0.000000
    310          0.212074        2.120039   1.000000  -0.000000
    311          0.232336        2.129496   1.000001  -0.000000
    312          0.286796        2.137200   1.000007  -0.000000
    313          0.354301        2.150381   1.000109  -0.000000
    314          0.357585        2.161740   1.000123  -0.000000
    315          0.388206        2.166080   1.000360  -0.000000
    316          0.398488        2.181082   1.000505  -0.000000
    317          0.409945        2.186860   1.000728  -0.000000
    318          0.425860        2.216373   1.001183  -0.000000
    319          0.444399        2.227350   1.002016  -0.000000
    320          0.492965        2.234860   1.006829  -0.000000
    321          0.512430        2.249775   1.010323  -0.000000
    322          0.518491        2.255088   1.011630  -0.000000
    323          0.546186        2.256380   1.018853  -0.000000
    324          0.568111        2.269742   1.025523  -0.000000
    325          0.572621        2.280849   1.026897  -0.000000
    326          0.606788        2.292393   1.034875  -0.000000
    327          0.632768        2.300046   1.033347  -0.000000
    328          0.690713        2.300469   0.969756  -0.000000
    329          0.761192        2.309592   0.711737  -0.000000
    330          0.799972        2.328562   0.500947  -0.000000
    331          0.879934        2.344280   0.112853  -0.000000
    332          0.904148        2.350727   0.042456  -0.000000
    333          0.980747        2.364645  -0.035390  -0.000000
    334          1.001029        2.380903  -0.033737  -0.000000
    335          1.043204        2.383775  -0.022124  -0.000000
    336          1.063240        2.386267  -0.016260  -0.000000
    337          1.108377        2.435215  -0.006668  -0.000000
    338          1.149426        2.452191  -0.002406  -0.000000
    339          1.192355        2.463540  -0.000683  -0.000000
    340          1.221974        2.471100  -0.000257  -0.000000
    341          1.225293        2.484951  -0.000229  -0.000000
    342          1.263264        2.492652  -0.000057  -0.000000
    343          1.286981        2.517799  -0.000022  -0.000000
    344          1.319028        2.520064  -0.000006  -0.000000
    345          1.354946        2.542149  -0.000001  -0.000000
    346          1.367170        2.557865  -0.000001  -0.000000
    347          1.376363        2.577229  -0.000000  -0.000000
    348          1.415021        2.601210  -0.000000  -0.000000
    349          1.443934        2.605038  -0.000000  -0.000000
    350          1.458584        2.633024  -0.000000  -0.000000
    351          1.484594        2.635625  -0.000000  -0.000000
    352          1.505602        2.664013  -0.000000  -0.000000
    353          1.535681        2.676195  -0.000000  -0.000000
    354          1.568678        2.704081  -0.000000  -0.000000
    355          1.592733        2.708905  -0.000000  -0.000000
    356          1.633467        2.747251  -0.000000  -0.000000
    357          1.640516        2.775289  -0.000000  -0.000000
    358          1.714954        2.839826  -0.000000  -0.000000
    359          1.737506        2.848772  -0.000000  -0.000000
 
  0.2500000E+00  0.6721729E-20  0.0000000E+00  0.1250000E+00
      1        -42.984161      -43.551998   1.000000   1.000000
      2        -42.965386      -43.526347   1.000000   1.000000
      3        -42.951634      -43.502253   1.000000   1.000000
      4        -42.944876      -43.488677   1.000000   1.000000
      5        -42.918198      -43.484728   1.000000   1.000000
      6        -42.904202      -43.474536   1.000000   1.000000
      7        -42.882794      -43.451021   1.000000   1.000000
      8        -42.879077      -43.427553   1.000000   1.000000
      9        -42.869656      -43.376401   1.000000   1.000000
     10        -42.493471      -43.371550   1.000000   1.000000
     11        -42.426307      -43.340676   1.000000   1.000000
     12        -42.376808      -43.339955   1.000000   1.000000
     13        -42.108765      -43.326272   1.000000   1.000000
     14        -42.080360      -43.321439   1.000000   1.000000
     15        -42.046789      -43.313930   1.000000   1.000000
     16        -42.018780      -43.305795   1.000000   1.000000
     17        -42.016611      -43.272588   1.000000   1.000000
     18        -42.010819      -43.246694   1.000000   1.000000
     19        -41.992677      -43.223767   1.000000   1.000000
     20        -41.975973      -43.209747   1.000000   1.000000
     21        -41.973056      -43.183774   1.000000   1.000000
     22        -41.959954      -43.150822   1.000000   1.000000
     23        -41.948698      -43.064025   1.000000   1.000000
     24        -41.947729      -43.058016   1.000000   1.000000
     25        -41.935878      -42.970594   1.000000   1.000000
     26        -41.929905      -42.936890   1.000000   1.000000
     27        -41.916683      -42.880806   1.000000   1.000000
     28        -41.914175      -41.680330   1.000000   1.000000
     29        -41.902521      -41.594247   1.000000   1.000000
     30        -41.896647      -41.536963   1.000000   1.000000
     31        -41.838915      -40.618085   1.000000   1.000000
     32        -41.822848      -40.609966   1.000000   1.000000
     33        -41.808981      -40.298231   1.000000   1.000000
     34        -40.426516      -40.181073   1.000000   1.000000
     35        -40.371238      -40.085759   1.000000   1.000000
     36        -40.316099      -40.084862   1.000000   1.000000
     37        -40.315038      -39.958336   1.000000   1.000000
     38        -40.276994      -39.893251   1.000000   1.000000
     39        -40.208603      -39.794799   1.000000   1.000000
     40         -7.274438       -7.172763   1.000000   1.000000
     41         -6.310695       -6.149252   1.000000   1.000000
     42         -6.201968       -6.081400   1.000000   1.000000
     43         -5.399802       -5.180088   1.000000   1.000000
     44         -5.295593       -5.124366   1.000000   1.000000
     45         -5.241494       -5.078646   1.000000   1.000000
     46         -5.017793       -4.734239   1.000000   1.000000
     47         -4.694989       -4.371239   1.000000   1.000000
     48         -4.660724       -4.349138   1.000000   1.000000
     49         -4.630750       -4.332231   1.000000   1.000000
     50         -4.558043       -4.300912   1.000000   1.000000
     51         -4.521822       -4.232213   1.000000   1.000000
     52         -4.412750       -3.989067   1.000000   1.000000
     53         -4.285358       -3.749203   1.000000   1.000000
     54         -4.194575       -3.567049   1.000000   1.000000
     55         -4.133048       -3.531007   1.000000   1.000000
     56         -4.128000       -3.485893   1.000000   1.000000
     57         -4.050631       -3.468912   1.000000   1.000000
     58         -4.012783       -3.429408   1.000000   1.000000
     59         -3.981350       -3.405689   1.000000   1.000000
     60         -3.954852       -3.319757   1.000000   1.000000
     61         -3.918493       -3.284157   1.000000   1.000000
     62         -3.874356       -3.053020   1.000000   1.000000
     63         -3.823513       -3.008037   1.000000   1.000000
     64         -3.810694       -2.969309   1.000000   1.000000
     65         -3.731341       -2.934971   1.000000   1.000000
     66         -3.706075       -2.818415   1.000000   1.000000
     67         -3.701447       -2.780468   1.000000   1.000000
     68         -3.687060       -2.760641   1.000000   1.000000
     69         -3.649230       -2.744514   1.000000   1.000000
     70         -3.631645       -2.696985   1.000000   1.000000
     71         -3.617146       -2.663884   1.000000   1.000000
     72         -3.593118       -2.616262   1.000000   1.000000
     73         -3.548888       -2.580302   1.000000   1.000000
     74         -3.501244       -2.517548   1.000000   1.000000
     75         -3.460342       -2.484676   1.000000   1.000000
     76         -3.451705       -2.447301   1.000000   1.000000
     77         -3.417392       -2.417887   1.000000   1.000000
     78         -3.405495       -2.358488   1.000000   1.000000
     79         -3.399765       -2.314576   1.000000   1.000000
     80         -3.388312       -2.302331   1.000000   1.000000
     81         -3.371550       -2.247053   1.000000   1.000000
     82         -3.355949       -2.232735   1.000000   1.000000
     83         -3.349582       -2.200978   1.000000   1.000000
     84         -3.326846       -2.173459   1.000000   1.000000
     85         -3.308685       -2.147276   1.000000   1.000000
     86         -3.283184       -2.123807   1.000000   1.000000
     87         -3.278142       -2.093902   1.000000   1.000000
     88         -3.251786       -2.083479   1.000000   1.000000
     89         -3.230774       -2.069522   1.000000   1.000000
     90         -3.178050       -2.045245   1.000000   1.000000
     91         -3.160202       -2.021467   1.000000   1.000000
     92         -3.151684       -2.002398   1.000000   1.000000
     93         -3.122245       -1.980579   1.000000   1.000000
     94         -3.108664       -1.952668   1.000000   1.000000
     95         -3.091672       -1.909409   1.000000   1.000000
     96         -3.060803       -1.857562   1.000000   1.000000
     97         -3.011656       -1.832417   1.000000   1.000000
     98         -2.996367       -1.787057   1.000000   1.000000
     99         -2.964376       -1.762155   1.000000   1.000000
    100         -2.915201       -1.714028   1.000000   1.000000
    101         -2.898937       -1.682674   1.000000   1.000000
    102         -2.880324       -1.661844   1.000000   1.000000
    103         -2.872429       -1.650934   1.000000   1.000000
    104         -2.852872       -1.628226   1.000000   1.000000