srun: ROUTE: split_hostlist: hl=j12r4n15 tree_width 0
 running on    4 total cores
 distrk:  each k-point on    1 cores,    4 groups
 distr:  one band on    1 cores,    1 groups
 HIP runtime initialized ...    4 DCUs will be used
 Created    4 streams on each DCU
 vasp.6.3.2 27Jun22 (build Mar 15 2023 15:45:48) complex                        
  
 POSCAR found type information on POSCAR FeCr
 POSCAR found :  2 types and      62 ions
 Reading from existing POTCAR
 -----------------------------------------------------------------------------
|                                                                             |
|           W    W    AA    RRRRR   N    N  II  N    N   GGGG   !!!           |
|           W    W   A  A   R    R  NN   N  II  NN   N  G    G  !!!           |
|           W    W  A    A  R    R  N N  N  II  N N  N  G       !!!           |
|           W WW W  AAAAAA  RRRRR   N  N N  II  N  N N  G  GGG   !            |
|           WW  WW  A    A  R   R   N   NN  II  N   NN  G    G                |
|           W    W  A    A  R    R  N    N  II  N    N   GGGG   !!!           |
|                                                                             |
|     You use a magnetic or noncollinear calculation, but did not specify     |
|     the initial magnetic moment with the MAGMOM tag. Note that a            |
|     default of 1 will be used for all atoms. This ferromagnetic setup       |
|     may break the symmetry of the crystal, in particular it may rule        |
|     out finding an antiferromagnetic solution. Thence, we recommend         |
|     setting the initial magnetic moment manually or verifying carefully     |
|     that this magnetic setup is desired.                                    |
|                                                                             |
 -----------------------------------------------------------------------------

 scaLAPACK will be used selectively (only on CPU)
 Reading from existing POTCAR
 LDA part: xc-table for Pade appr. of Perdew
 POSCAR found type information on POSCAR FeCr
 POSCAR found :  2 types and      62 ions
 Optimize memory usage for KPAR
 POSCAR, INCAR and KPOINTS ok, starting setup
 FFT: planning ... GRIDC
 FFT: planning ... GRID_SOFT
 FFT: planning ... GRID
 WAVECAR not read
 WARNING: chargedensity file is incomplete
 WARNING: random wavefunctions but no delay for mixing, default for NELMDL
 entering main loop
       N       E                     dE             d eps       ncg     rms          rms(c)
DAV:   1     0.528062781868E+04    0.52806E+04   -0.23277E+05 15192   0.143E+03
DAV:   2    -0.995059003856E+02   -0.53801E+04   -0.51893E+04 14360   0.418E+02
DAV:   3    -0.517343033566E+03   -0.41784E+03   -0.36995E+03 14787   0.158E+02
DAV:   4    -0.574852027205E+03   -0.57509E+02   -0.53882E+02 25616   0.444E+01
DAV:   5    -0.578047810964E+03   -0.31958E+01   -0.30236E+01 23408   0.992E+00    0.934E+01
DAV:   6    -0.683384409479E+03   -0.10534E+03   -0.33723E+02 26176   0.823E+01    0.149E+02
DAV:   7    -0.621935692118E+03    0.61449E+02   -0.26631E+02 26872   0.975E+01    0.134E+02
DAV:   8    -0.551479967567E+03    0.70456E+02   -0.13526E+02 26376   0.715E+01    0.938E+01
DAV:   9    -0.523221946537E+03    0.28258E+02   -0.66379E+01 24464   0.390E+01    0.697E+01
DAV:  10    -0.503022066284E+03    0.20200E+02   -0.52989E+01 23112   0.290E+01    0.535E+01
DAV:  11    -0.490213732572E+03    0.12808E+02   -0.58835E+01 20744   0.289E+01    0.458E+01
DAV:  12    -0.486599431333E+03    0.36143E+01   -0.20198E+01 21064   0.187E+01    0.364E+01
DAV:  13    -0.487283992466E+03   -0.68456E+00   -0.43044E+00 21328   0.849E+00    0.362E+01
DAV:  14    -0.487407883712E+03   -0.12389E+00   -0.66508E-01 17776   0.279E+00    0.361E+01
DAV:  15    -0.487414940695E+03   -0.70570E-02   -0.10142E-01 27320   0.738E-01    0.367E+01
DAV:  16    -0.488723042888E+03   -0.13081E+01   -0.83523E-01 25808   0.369E+00    0.345E+01
DAV:  17    -0.492863448461E+03   -0.41404E+01   -0.50111E+00 24400   0.833E+00    0.296E+01
DAV:  18    -0.496139496290E+03   -0.32760E+01   -0.54329E+00 24584   0.900E+00    0.270E+01
DAV:  19    -0.496387584598E+03   -0.24809E+00   -0.26101E+00 24440   0.615E+00    0.220E+01
DAV:  20    -0.497062391094E+03   -0.67481E+00   -0.12429E+00 23920   0.432E+00    0.228E+01
DAV:  21    -0.497319914240E+03   -0.25752E+00   -0.68586E-01 24864   0.314E+00    0.206E+01
DAV:  22    -0.498251536796E+03   -0.93162E+00   -0.16333E+00 25776   0.470E+00    0.181E+01
DAV:  23    -0.498568573223E+03   -0.31704E+00   -0.10702E+00 25512   0.381E+00    0.153E+01
DAV:  24    -0.498840966794E+03   -0.27239E+00   -0.10672E+00 25888   0.369E+00    0.122E+01
DAV:  25    -0.499072466235E+03   -0.23150E+00   -0.80017E-01 24592   0.293E+00    0.103E+01
DAV:  26    -0.499234380086E+03   -0.16191E+00   -0.46770E-01 24864   0.260E+00    0.891E+00
DAV:  27    -0.499446225047E+03   -0.21184E+00   -0.48330E-01 25352   0.236E+00    0.755E+00
DAV:  28    -0.499627272081E+03   -0.18105E+00   -0.90959E-01 25264   0.281E+00    0.630E+00
DAV:  29    -0.499634370374E+03   -0.70983E-02   -0.14151E-01 22736   0.148E+00    0.534E+00
DAV:  30    -0.499680032984E+03   -0.45663E-01   -0.11054E-01 25496   0.116E+00    0.462E+00
DAV:  31    -0.499737875250E+03   -0.57842E-01   -0.32576E-01 25160   0.167E+00    0.344E+00
DAV:  32    -0.499748070495E+03   -0.10195E-01   -0.11582E-01 23800   0.110E+00    0.300E+00
DAV:  33    -0.499752171793E+03   -0.41013E-02   -0.31605E-02 23376   0.897E-01    0.259E+00
DAV:  34    -0.499761753613E+03   -0.95818E-02   -0.36767E-02 25264   0.750E-01    0.215E+00
DAV:  35    -0.499774343538E+03   -0.12590E-01   -0.53868E-02 24768   0.662E-01    0.183E+00
DAV:  36    -0.499774347118E+03   -0.35794E-05   -0.28682E-02 24968   0.921E-01    0.127E+00
DAV:  37    -0.499775096857E+03   -0.74974E-03   -0.14471E-02 24376   0.424E-01    0.101E+00
DAV:  38    -0.499778020701E+03   -0.29238E-02   -0.57337E-03 24248   0.261E-01    0.931E-01
DAV:  39    -0.499780142216E+03   -0.21215E-02   -0.46419E-03 25552   0.313E-01    0.741E-01
DAV:  40    -0.499780460783E+03   -0.31857E-03   -0.54085E-03 25464   0.292E-01    0.531E-01
DAV:  41    -0.499780696923E+03   -0.23614E-03   -0.24968E-03 23768   0.168E-01    0.423E-01
DAV:  42    -0.499780511323E+03    0.18560E-03   -0.80338E-04 24704   0.113E-01    0.328E-01
DAV:  43    -0.499780766194E+03   -0.25487E-03   -0.11423E-03 25872   0.146E-01    0.225E-01
DAV:  44    -0.499780958292E+03   -0.19210E-03   -0.88305E-04 24320   0.103E-01    0.200E-01
DAV:  45    -0.499781024167E+03   -0.65875E-04   -0.27877E-04 22752   0.672E-02    0.166E-01
DAV:  46    -0.499781032384E+03   -0.82170E-05   -0.92555E-05 17600   0.449E-02
   1 F= -.49978103E+03 E0= -.49978820E+03  d E =-.499781E+03  mag=   107.4409
 curvature:   0.00 expect dE= 0.000E+00 dE for cont linesearch  0.000E+00
 trial: gam= 0.00000 g(F)=  0.316E-01 g(S)=  0.000E+00 ort = 0.000E+00 (trialstep = 0.100E+01)
 search vector abs. value=  0.316E-01
 bond charge predicted
       N       E                     dE             d eps       ncg     rms          rms(c)
DAV:   1    -0.499695249410E+03    0.85775E-01   -0.85582E+00 16170   0.798E+00    0.166E+00
DAV:   2    -0.499809879697E+03   -0.11463E+00   -0.96176E-01 18424   0.237E+00    0.208E+00
DAV:   3    -0.499843695304E+03   -0.33816E-01   -0.31657E-01 24760   0.292E+00    0.302E+00
DAV:   4    -0.499797032700E+03    0.46663E-01   -0.11678E-01 25464   0.172E+00    0.941E-01
DAV:   5    -0.499800987113E+03   -0.39544E-02   -0.71157E-03 21360   0.455E-01    0.779E-01
DAV:   6    -0.499806703255E+03   -0.57161E-02   -0.80350E-03 22528   0.513E-01    0.569E-01
DAV:   7    -0.499806201865E+03    0.50139E-03   -0.30633E-03 22792   0.305E-01    0.264E-01
DAV:   8    -0.499806160661E+03    0.41205E-04   -0.65759E-04 22000   0.893E-02    0.219E-01
DAV:   9    -0.499806147474E+03    0.13186E-04   -0.17475E-04 17552   0.522E-02    0.193E-01
DAV:  10    -0.499806141955E+03    0.55192E-05   -0.52970E-04 22536   0.762E-02    0.105E-01
DAV:  11    -0.499806181595E+03   -0.39640E-04   -0.21378E-04 21912   0.449E-02    0.874E-02
DAV:  12    -0.499806195497E+03   -0.13902E-04   -0.26434E-05 10888   0.232E-02    0.779E-02
DAV:  13    -0.499806240115E+03   -0.44618E-04   -0.26296E-05 11344   0.237E-02    0.445E-02
DAV:  14    -0.499806263002E+03   -0.22887E-04   -0.35407E-05 11920   0.170E-02    0.347E-02
DAV:  15    -0.499806265897E+03   -0.28955E-05   -0.98398E-06  7984   0.144E-02
   2 F= -.49980627E+03 E0= -.49981318E+03  d E =-.252335E-01  mag=   107.4797
 trial-energy change:   -0.025234  1 .order   -0.025043   -0.031623   -0.018462
 step:   2.1790(harm=  2.4027)  dis= 0.01942  next Energy=  -499.817462 (dE=-0.364E-01)
 bond charge predicted
       N       E                     dE             d eps       ncg     rms          rms(c)
DAV:   1    -0.499665514741E+03    0.14075E+00   -0.11902E+01 15988   0.943E+00    0.197E+00
DAV:   2    -0.499819751679E+03   -0.15424E+00   -0.13166E+00 17364   0.276E+00    0.231E+00
DAV:   3    -0.499880068127E+03   -0.60316E-01   -0.43970E-01 25064   0.344E+00    0.373E+00
DAV:   4    -0.499806206264E+03    0.73862E-01   -0.17976E-01 26104   0.218E+00    0.112E+00
DAV:   5    -0.499811808862E+03   -0.56026E-02   -0.10007E-02 22128   0.529E-01    0.912E-01
DAV:   6    -0.499819546956E+03   -0.77381E-02   -0.11305E-02 22736   0.618E-01    0.685E-01
DAV:   7    -0.499819069921E+03    0.47704E-03   -0.45280E-03 22696   0.370E-01    0.309E-01
DAV:   8    -0.499819034265E+03    0.35656E-04   -0.10006E-03 22680   0.115E-01    0.256E-01
DAV:   9    -0.499818996104E+03    0.38161E-04   -0.27235E-04 16872   0.702E-02    0.230E-01
DAV:  10    -0.499818971575E+03    0.24530E-04   -0.60706E-04 22352   0.826E-02    0.132E-01
DAV:  11    -0.499819021971E+03   -0.50396E-04   -0.31553E-04 22320   0.571E-02    0.106E-01
DAV:  12    -0.499819038853E+03   -0.16883E-04   -0.47831E-05 14128   0.317E-02    0.907E-02
DAV:  13    -0.499819112013E+03   -0.73159E-04   -0.46262E-05 13504   0.215E-02    0.541E-02
DAV:  14    -0.499819141257E+03   -0.29244E-04   -0.20140E-05 10192   0.201E-02    0.408E-02
DAV:  15    -0.499819145555E+03   -0.42977E-05   -0.12138E-05  8136   0.131E-02
   3 F= -.49981915E+03 E0= -.49982584E+03  d E =-.381132E-01  mag=   107.5125
 curvature:  -1.17 expect dE=-0.535E-02 dE for cont linesearch -0.361E-03
 ZBRENT: extrapolating
 opt :   2.4189  next Energy=  -499.819520 (dE=-0.385E-01)
 bond charge predicted
       N       E                     dE             d eps       ncg     rms          rms(c)
DAV:   1    -0.499813059637E+03    0.60816E-02   -0.49065E-01 16155   0.193E+00    0.399E-01
DAV:   2    -0.499819265052E+03   -0.62054E-02   -0.54874E-02 16026   0.530E-01    0.428E-01
DAV:   3    -0.499822369415E+03   -0.31044E-02   -0.17702E-02 24568   0.694E-01    0.803E-01
DAV:   4    -0.499818905160E+03    0.34643E-02   -0.90774E-03 26536   0.468E-01    0.225E-01
DAV:   5    -0.499819186827E+03   -0.28167E-03   -0.40791E-04 22072   0.106E-01    0.183E-01
DAV:   6    -0.499819541148E+03   -0.35432E-03   -0.52127E-04 22880   0.134E-01    0.146E-01
DAV:   7    -0.499819499405E+03    0.41743E-04   -0.23263E-04 21904   0.843E-02    0.598E-02
DAV:   8    -0.499819508592E+03   -0.91867E-05   -0.32168E-05 11968   0.209E-02
   4 F= -.49981951E+03 E0= -.49982616E+03  d E =-.384762E-01  mag=   107.5159
 curvature:  -1.22 expect dE=-0.629E-02 dE for cont linesearch -0.209E-04
 trial: gam= 0.14026 g(F)=  0.517E-02 g(S)=  0.000E+00 ort = 0.737E-03 (trialstep = 0.128E+01)
 search vector abs. value=  0.600E-02
 bond charge predicted
       N       E                     dE             d eps       ncg     rms          rms(c)
DAV:   1    -0.499803502613E+03    0.15997E-01   -0.22389E+00 14798   0.322E+00    0.949E-01
DAV:   2    -0.499819567218E+03   -0.16065E-01   -0.12381E-01 15552   0.825E-01    0.832E-01
DAV:   3    -0.499839953215E+03   -0.20386E-01   -0.68954E-02 25024   0.136E+00    0.191E+00
DAV:   4    -0.499821852630E+03    0.18101E-01   -0.55932E-02 26736   0.112E+00    0.541E-01
DAV:   5    -0.499825081950E+03   -0.32293E-02   -0.37573E-03 24680   0.270E-01    0.368E-01
DAV:   6    -0.499825545245E+03   -0.46329E-03   -0.20646E-03 24512   0.303E-01    0.307E-01
DAV:   7    -0.499825277587E+03    0.26766E-03   -0.75528E-04 22256   0.155E-01    0.158E-01
DAV:   8    -0.499825223477E+03    0.54111E-04   -0.21963E-04 20008   0.659E-02    0.112E-01
DAV:   9    -0.499825211282E+03    0.12195E-04   -0.10404E-04 16936   0.351E-02    0.934E-02
DAV:  10    -0.499825177951E+03    0.33331E-04   -0.13318E-04 20800   0.384E-02    0.597E-02
DAV:  11    -0.499825173822E+03    0.41285E-05   -0.32414E-05 10240   0.283E-02
   5 F= -.49982517E+03 E0= -.49983172E+03  d E =-.566523E-02  mag=   107.5127
 trial-energy change:   -0.005665  1 .order   -0.005780   -0.006773   -0.004787
 step:   4.3794(harm=  4.3794)  dis= 0.01909  next Energy=  -499.831061 (dE=-0.116E-01)
 bond charge predicted
       N       E                     dE             d eps       ncg     rms          rms(c)
DAV:   1    -0.499702896178E+03    0.12228E+00   -0.13014E+01 14783   0.776E+00    0.231E+00
DAV:   2    -0.499793914842E+03   -0.91019E-01   -0.72742E-01 14906   0.192E+00    0.180E+00
DAV:   3    -0.499957516136E+03   -0.16360E+00   -0.44667E-01 26168   0.330E+00    0.514E+00
DAV:   4    -0.499809264761E+03    0.14825E+00   -0.43269E-01 26752   0.300E+00    0.126E+00
DAV:   5    -0.499829558288E+03   -0.20294E-01   -0.19990E-02 23232   0.549E-01    0.792E-01
DAV:   6    -0.499831706465E+03   -0.21482E-02   -0.93557E-03 24328   0.651E-01    0.625E-01
DAV:   7    -0.499830682985E+03    0.10235E-02   -0.32236E-03 22752   0.341E-01    0.348E-01
DAV:   8    -0.499830450046E+03    0.23294E-03   -0.84997E-04 22896   0.127E-01    0.267E-01
DAV:   9    -0.499830332683E+03    0.11736E-03   -0.36331E-04 19360   0.632E-02    0.233E-01
DAV:  10    -0.499830052645E+03    0.28004E-03   -0.63844E-04 21856   0.877E-02    0.147E-01
DAV:  11    -0.499830003987E+03    0.48658E-04   -0.17949E-04 21120   0.410E-02    0.126E-01
DAV:  12    -0.499830009648E+03   -0.56614E-05   -0.53368E-05 12944   0.420E-02
   6 F= -.49983001E+03 E0= -.49983624E+03  d E =-.105011E-01  mag=   107.4940
 curvature:  -2.49 expect dE=-0.671E-02 dE for cont linesearch -0.607E-05
 trial: gam= 0.55682 g(F)=  0.269E-02 g(S)=  0.000E+00 ort =-0.121E-03 (trialstep = 0.190E+01)
 search vector abs. value=  0.442E-02
 bond charge predicted
       N       E                     dE             d eps       ncg     rms          rms(c)
DAV:   1    -0.499796162645E+03    0.33841E-01   -0.36742E+00 14790   0.435E+00    0.122E+00
DAV:   2    -0.499823038768E+03   -0.26876E-01   -0.22179E-01 14978   0.112E+00    0.926E-01
DAV:   3    -0.499856829522E+03   -0.33791E-01   -0.83701E-02 26920   0.145E+00    0.230E+00
DAV:   4    -0.499827997197E+03    0.28832E-01   -0.86145E-02 26984   0.147E+00    0.746E-01
DAV:   5    -0.499832962987E+03   -0.49658E-02   -0.61722E-03 23664   0.349E-01    0.425E-01
DAV:   6    -0.499833607451E+03   -0.64446E-03   -0.27782E-03 24424   0.345E-01    0.302E-01
DAV:   7    -0.499833314155E+03    0.29330E-03   -0.11702E-03 22424   0.209E-01    0.164E-01
DAV:   8    -0.499833321067E+03   -0.69128E-05   -0.22426E-04 21696   0.536E-02    0.153E-01
DAV:   9    -0.499833284520E+03    0.36548E-04   -0.93860E-05 16784   0.451E-02    0.127E-01
DAV:  10    -0.499833209618E+03    0.74901E-04   -0.25230E-04 22128   0.567E-02    0.813E-02
DAV:  11    -0.499833205112E+03    0.45061E-05   -0.43802E-05 14032   0.260E-02
   7 F= -.49983321E+03 E0= -.49983922E+03  d E =-.319546E-02  mag=   107.4703
 trial-energy change:   -0.003195  1 .order   -0.003524   -0.004998   -0.002049
 step:   3.2248(harm=  3.2248)  dis= 0.01555  next Energy=  -499.834245 (dE=-0.424E-02)
 bond charge predicted
       N       E                     dE             d eps       ncg     rms          rms(c)
DAV:   1    -0.499815937580E+03    0.17272E-01   -0.17733E+00 14798   0.302E+00    0.845E-01
DAV:   2    -0.499829493793E+03   -0.13556E-01   -0.10754E-01 15768   0.822E-01    0.749E-01
DAV:   3    -0.499845377575E+03   -0.15884E-01   -0.56007E-02 26208   0.121E+00    0.169E+00
DAV:   4    -0.499830930411E+03    0.14447E-01   -0.43229E-02 26992   0.103E+00    0.496E-01
DAV:   5    -0.499833549318E+03   -0.26189E-02   -0.31277E-03 22728   0.246E-01    0.283E-01
DAV:   6    -0.499833964481E+03   -0.41516E-03   -0.97453E-04 23416   0.186E-01    0.252E-01
DAV:   7    -0.499833709642E+03    0.25484E-03   -0.68360E-04 21976   0.171E-01    0.131E-01
DAV:   8    -0.499833714247E+03   -0.46046E-05   -0.12806E-04 19720   0.422E-02    0.120E-01
DAV:   9    -0.499833691909E+03    0.22338E-04   -0.55108E-05 15496   0.338E-02    0.989E-02
DAV:  10    -0.499833655517E+03    0.36392E-04   -0.16608E-04 21264   0.442E-02    0.583E-02
DAV:  11    -0.499833658534E+03   -0.30169E-05   -0.22671E-05 10376   0.189E-02
   8 F= -.49983366E+03 E0= -.49983949E+03  d E =-.364889E-02  mag=   107.4532
 curvature:  -2.71 expect dE=-0.169E-02 dE for cont linesearch -0.403E-05
 trial: gam= 0.13044 g(F)=  0.624E-03 g(S)=  0.000E+00 ort =-0.811E-04 (trialstep = 0.217E+01)
 search vector abs. value=  0.678E-03
 bond charge predicted
       N       E                     dE             d eps       ncg     rms          rms(c)
DAV:   1    -0.499828535208E+03    0.51203E-02   -0.67605E-01 14368   0.179E+00    0.509E-01
DAV:   2    -0.499832767437E+03   -0.42322E-02   -0.33474E-02 15164   0.478E-01    0.421E-01
DAV:   3    -0.499839651197E+03   -0.68838E-02   -0.19909E-02 26688   0.717E-01    0.107E+00
DAV:   4    -0.499833488078E+03    0.61631E-02   -0.18227E-02 27120   0.660E-01    0.309E-01
DAV:   5    -0.499834501660E+03   -0.10136E-02   -0.10830E-03 22160   0.134E-01    0.163E-01
DAV:   6    -0.499834594198E+03   -0.92539E-04   -0.42141E-04 23888   0.135E-01    0.138E-01
DAV:   7    -0.499834544626E+03    0.49572E-04   -0.17729E-04 19096   0.822E-02    0.821E-02
DAV:   8    -0.499834539220E+03    0.54064E-05   -0.39104E-05 10392   0.325E-02
   9 F= -.49983454E+03 E0= -.49984030E+03  d E =-.880686E-03  mag=   107.4446
 trial-energy change:   -0.000881  1 .order   -0.000988   -0.001330   -0.000645
 step:   4.2110(harm=  4.2110)  dis= 0.00843  next Energy=  -499.834950 (dE=-0.129E-02)
 bond charge predicted
       N       E                     dE             d eps       ncg     rms          rms(c)
DAV:   1    -0.499829248548E+03    0.52961E-02   -0.60065E-01 14384   0.169E+00    0.484E-01
DAV:   2    -0.499832938669E+03   -0.36901E-02   -0.29659E-02 15014   0.439E-01    0.397E-01
DAV:   3    -0.499838535476E+03   -0.55968E-02   -0.15176E-02 26536   0.615E-01    0.969E-01
DAV:   4    -0.499833622251E+03    0.49132E-02   -0.15951E-02 26872   0.616E-01    0.320E-01
DAV:   5    -0.499834635295E+03   -0.10130E-02   -0.16472E-03 25408   0.229E-01    0.234E-01
DAV:   6    -0.499834562033E+03    0.73262E-04   -0.63476E-04 23600   0.159E-01    0.126E-01
DAV:   7    -0.499834564742E+03   -0.27096E-05   -0.17684E-04 19584   0.593E-02    0.970E-02
DAV:   8    -0.499834562600E+03    0.21423E-05   -0.28591E-05 11320   0.226E-02
  10 F= -.49983456E+03 E0= -.49984028E+03  d E =-.904066E-03  mag=   107.4357
 curvature:  -2.33 expect dE=-0.728E-03 dE for cont linesearch -0.656E-05
 trial: gam= 0.53498 g(F)=  0.313E-03 g(S)=  0.000E+00 ort =-0.437E-04 (trialstep = 0.258E+01)
 search vector abs. value=  0.460E-03
 bond charge predicted
       N       E                     dE             d eps       ncg     rms          rms(c)
DAV:   1    -0.499828865182E+03    0.56996E-02   -0.65833E-01 14349   0.174E+00    0.527E-01
DAV:   2    -0.499832892671E+03   -0.40275E-02   -0.31275E-02 14966   0.433E-01    0.410E-01
DAV:   3    -0.499837033383E+03   -0.41407E-02   -0.89498E-03 26216   0.481E-01    0.787E-01
DAV:   4    -0.499834158899E+03    0.28745E-02   -0.12706E-02 26504   0.556E-01    0.379E-01
DAV:   5    -0.499834847951E+03   -0.68905E-03   -0.17258E-03 25592   0.194E-01    0.230E-01
DAV:   6    -0.499834911469E+03   -0.63518E-04   -0.65447E-04 24544   0.163E-01    0.125E-01
DAV:   7    -0.499834880839E+03    0.30629E-04   -0.22292E-04 20840   0.811E-02    0.870E-02
DAV:   8    -0.499834880538E+03    0.30170E-06   -0.33523E-05 12432   0.204E-02
  11 F= -.49983488E+03 E0= -.49984063E+03  d E =-.317938E-03  mag=   107.4290
 trial-energy change:   -0.000318  1 .order   -0.000492   -0.000745   -0.000239
 step:   3.7888(harm=  3.7888)  dis= 0.00825  next Energy=  -499.835111 (dE=-0.548E-03)
 bond charge predicted
       N       E                     dE             d eps       ncg     rms          rms(c)
DAV:   1    -0.499833494420E+03    0.13864E-02   -0.14576E-01 14356   0.821E-01    0.254E-01
DAV:   2    -0.499834594862E+03   -0.11004E-02   -0.73744E-03 19360   0.255E-01    0.288E-01
DAV:   3    -0.499834919020E+03   -0.32416E-03   -0.35174E-03 23744   0.313E-01    0.349E-01
DAV:   4    -0.499834596172E+03    0.32285E-03   -0.16484E-03 21624   0.206E-01    0.162E-01
DAV:   5    -0.499834810426E+03   -0.21425E-03   -0.28151E-04 23456   0.950E-02    0.118E-01
DAV:   6    -0.499834810972E+03   -0.54672E-06   -0.16275E-04 22480   0.800E-02    0.721E-02
DAV:   7    -0.499834812785E+03   -0.18124E-05   -0.39136E-05 13296   0.374E-02
  12 F= -.49983481E+03 E0= -.49984059E+03  d E =-.250185E-03  mag=   107.4254
 curvature:  -3.01 expect dE=-0.515E-03 dE for cont linesearch -0.121E-04
 ZBRENT: interpolating
 opt :   3.4039  next Energy=  -499.834821 (dE=-0.258E-03)
 bond charge predicted
       N       E                     dE             d eps       ncg     rms          rms(c)
DAV:   1    -0.499834688866E+03    0.12211E-03   -0.14735E-02 14380   0.260E-01    0.975E-02
DAV:   2    -0.499834866239E+03   -0.17737E-03   -0.91285E-04 21800   0.114E-01    0.135E-01
DAV:   3    -0.499834851824E+03    0.14415E-04   -0.66597E-04 18888   0.134E-01    0.130E-01
DAV:   4    -0.499834813052E+03    0.38772E-04   -0.17343E-04 12736   0.671E-02    0.622E-02
DAV:   5    -0.499834834784E+03   -0.21733E-04   -0.22603E-05 10792   0.374E-02    0.528E-02
DAV:   6    -0.499834834975E+03   -0.19125E-06   -0.29329E-05 12160   0.286E-02
  13 F= -.49983483E+03 E0= -.49984058E+03  d E =-.272375E-03  mag=   107.4257
 curvature:  -2.06 expect dE=-0.347E-03 dE for cont linesearch -0.759E-05
 ZBRENT: bisectioning
 opt :   2.9900  next Energy=  -499.834852 (dE=-0.289E-03)
 bond charge predicted
       N       E                     dE             d eps       ncg     rms          rms(c)
DAV:   1    -0.499834702769E+03    0.13201E-03   -0.17020E-02 14369   0.279E-01    0.834E-02
DAV:   2    -0.499834813081E+03   -0.11031E-03   -0.83731E-04 14924   0.729E-02    0.632E-02
DAV:   3    -0.499834874366E+03   -0.61285E-04   -0.10653E-04 10920   0.577E-02    0.942E-02
DAV:   4    -0.499834858111E+03    0.16256E-04   -0.24319E-04 10192   0.841E-02    0.763E-02
DAV:   5    -0.499834855977E+03    0.21333E-05   -0.49414E-05 10136   0.381E-02
  14 F= -.49983486E+03 E0= -.49984060E+03  d E =-.293377E-03  mag=   107.4265
 curvature:  -4.51 expect dE=-0.812E-03 dE for cont linesearch -0.305E-04
 ZBRENT: interpolating
 opt :   3.2281  next Energy=  -499.834839 (dE=-0.276E-03)
 bond charge predicted
       N       E                     dE             d eps       ncg     rms          rms(c)
DAV:   1    -0.499834805289E+03    0.52822E-04   -0.55615E-03 14220   0.161E-01    0.485E-02
DAV:   2    -0.499834907119E+03   -0.10183E-03   -0.43819E-04 20456   0.851E-02    0.115E-01
DAV:   3    -0.499834830193E+03    0.76926E-04   -0.24556E-04 16072   0.842E-02    0.407E-02
DAV:   4    -0.499834845433E+03   -0.15239E-04   -0.16202E-05 10208   0.161E-02    0.282E-02
DAV:   5    -0.499834850914E+03   -0.54810E-05   -0.64183E-06  7840   0.134E-02
  15 F= -.49983485E+03 E0= -.49984060E+03  d E =-.288314E-03  mag=   107.4264
 curvature:  -0.54 expect dE=-0.987E-04 dE for cont linesearch -0.101E-04
 ZBRENT: interpolating
 opt :   3.0791  next Energy=  -499.834858 (dE=-0.296E-03)
 bond charge predicted
       N       E                     dE             d eps       ncg     rms          rms(c)
DAV:   1    -0.499834842477E+03    0.29552E-05   -0.21945E-03 14226   0.101E-01    0.309E-02
DAV:   2    -0.499834869962E+03   -0.27485E-04   -0.14469E-04 16856   0.470E-02    0.552E-02
DAV:   3    -0.499834863384E+03    0.65778E-05   -0.93946E-05  9608   0.520E-02
  16 F= -.49983486E+03 E0= -.49984059E+03  d E =-.300784E-03  mag=   107.4264
 curvature:  -0.13 expect dE=-0.236E-04 dE for cont linesearch -0.231E-06
 trial: gam= 0.15909 g(F)=  0.179E-03 g(S)=  0.000E+00 ort = 0.284E-04 (trialstep = 0.268E+01)
 search vector abs. value=  0.200E-03
 bond charge predicted
       N       E                     dE             d eps       ncg     rms          rms(c)
DAV:   1    -0.499832138844E+03    0.27311E-02   -0.32358E-01 14782   0.118E+00    0.347E-01
DAV:   2    -0.499834339932E+03   -0.22011E-02   -0.17163E-02 17260   0.317E-01    0.315E-01
DAV:   3    -0.499836753732E+03   -0.24138E-02   -0.89196E-03 25608   0.488E-01    0.666E-01
DAV:   4    -0.499834607095E+03    0.21466E-02   -0.71035E-03 25784   0.404E-01    0.218E-01
DAV:   5    -0.499834995590E+03   -0.38849E-03   -0.45389E-04 24544   0.112E-01    0.161E-01
DAV:   6    -0.499835102827E+03   -0.10724E-03   -0.47314E-04 23625   0.135E-01    0.998E-02
DAV:   7    -0.499835072303E+03    0.30524E-04   -0.12421E-04 18128   0.587E-02    0.505E-02
DAV:   8    -0.499835072129E+03    0.17333E-06   -0.18035E-05  9080   0.186E-02
  17 F= -.49983507E+03 E0= -.49984086E+03  d E =-.208745E-03  mag=   107.4268
 trial-energy change:   -0.000209  1 .order   -0.000288   -0.000493   -0.000083
 step:   3.2165(harm=  3.2165)  dis= 0.00367  next Energy=  -499.835159 (dE=-0.296E-03)
 reached required accuracy - stopping structural energy minimisation
 PROFILE, used timers:     231
