<?xml version="1.0" encoding="ISO-8859-1"?>
<modeling>
 <generator>
  <i name="program" type="string">vasp </i>
  <i name="version" type="string">6.3.2  </i>
  <i name="subversion" type="string">27Jun22 (build Mar 15 2023 15:45:48) complex                          parallel </i>
  <i name="platform" type="string">LinuxIFC </i>
  <i name="date" type="string">2025 02 08 </i>
  <i name="time" type="string">00:53:52 </i>
 </generator>
 <incar>
  <i type="string" name="SYSTEM">ni3al</i>
  <i type="int" name="ISTART">     1</i>
  <i type="string" name="PREC">Accurate</i>
  <i type="string" name="ALGO">Normal</i>
  <i type="int" name="ISPIN">     2</i>
  <i type="int" name="IMIX">     4</i>
  <i name="AMIX">      0.05000000</i>
  <i name="BMIX">      0.00010000</i>
  <i name="AMIN">      0.01000000</i>
  <i type="int" name="ICHARG">     1</i>
  <i type="int" name="NELM">   150</i>
  <i type="int" name="IBRION">     2</i>
  <i name="EDIFF">      0.00001000</i>
  <i name="EDIFFG">     -0.02000000</i>
  <i type="int" name="NSW">   300</i>
  <i type="int" name="ISIF">     2</i>
  <i name="ENCUT">    450.00000000</i>
  <i type="string" name="LREAL">Auto</i>
  <i type="int" name="ISMEAR">     1</i>
  <i name="SIGMA">      0.15000000</i>
  <i type="int" name="LMAXMIX">     4</i>
  <i type="logical" name="LWAVE"> F  </i>
  <i type="logical" name="LCHARG"> F  </i>
  <i type="logical" name="LDIPOL"> T  </i>
  <i type="int" name="IDIPOL">     3</i>
 </incar>
 <primitive_cell>
  <structure name="primitive_cell" >
   <crystal>
    <varray name="basis" >
     <v>       8.53269958       0.00000000       0.00000000 </v>
     <v>      -0.00051933       8.49699972       0.00000000 </v>
     <v>       0.00000000       0.00000000      23.59499931 </v>
    </varray>
    <i name="volume">   1710.69280467 </i>
    <varray name="rec_basis" >
     <v>       0.11719620       0.00000716       0.00000000 </v>
     <v>       0.00000000       0.11768860       0.00000000 </v>
     <v>       0.00000000       0.00000000       0.04238186 </v>
    </varray>
   </crystal>
   <varray name="positions" >
    <v>       0.00086000       0.99993000       0.24271000 </v>
    <v>       0.16582510       0.16687191       0.30359811 </v>
    <v>       0.50119068       0.16882397       0.30317387 </v>
    <v>       0.66822000       0.00107000       0.24272000 </v>
    <v>       0.83475755       0.16959563       0.30326156 </v>
    <v>       0.00044000       0.33497000       0.24240000 </v>
    <v>       0.16549445       0.49995658       0.30347876 </v>
    <v>       0.33469000       0.33305000       0.24267000 </v>
    <v>       0.50233275       0.49954053       0.30278627 </v>
    <v>       0.83323483       0.50163357       0.30325824 </v>
    <v>       0.16762456       0.83354547       0.30434707 </v>
    <v>       0.33342000       0.66555000       0.24261000 </v>
    <v>       0.83612142       0.83116009       0.30362450 </v>
    <v>       0.00064000       0.00119000       0.00199000 </v>
    <v>       0.00042755       0.00004460       0.36118614 </v>
    <v>       0.16843000       0.16962000       0.06269000 </v>
    <v>       0.33460000       0.00297000       0.00254000 </v>
    <v>       0.33356295       0.00173459       0.36153765 </v>
    <v>       0.50463000       0.16850000       0.06120000 </v>
    <v>       0.83272000       0.16670000       0.06193000 </v>
    <v>       0.00004000       0.33467000       0.00213000 </v>
    <v>       0.00151203       0.33453016       0.36078237 </v>
    <v>       0.16757000       0.49895000       0.06268000 </v>
    <v>       0.50099000       0.49896000       0.06206000 </v>
    <v>       0.83393000       0.50234000       0.06235000 </v>
    <v>       0.00121000       0.66785000       0.00188000 </v>
    <v>       0.00036228       0.66655132       0.36076412 </v>
    <v>       0.16792000       0.83462000       0.06228000 </v>
    <v>       0.33437000       0.66664000       0.00225000 </v>
    <v>       0.33525215       0.66497282       0.36186884 </v>
    <v>       0.50152000       0.83563000       0.06217000 </v>
    <v>       0.66753000       0.66705000       0.00175000 </v>
    <v>       0.66698635       0.66632422       0.36035327 </v>
    <v>       0.83293000       0.83584000       0.06235000 </v>
    <v>       0.00121000       0.00098000       0.12225000 </v>
    <v>       0.16700000       0.16811000       0.18239000 </v>
    <v>       0.33470000       0.00227000       0.12192000 </v>
    <v>       0.50174000       0.16716000       0.18263000 </v>
    <v>       0.83421000       0.16639000       0.18283000 </v>
    <v>       0.16964000       0.49868000       0.18209000 </v>
    <v>       0.50219000       0.50081000       0.18317000 </v>
    <v>       0.66741000       0.33395000       0.12233000 </v>
    <v>       0.83134000       0.50253000       0.18283000 </v>
    <v>       0.00132000       0.66795000       0.12253000 </v>
    <v>       0.16898000       0.83509000       0.18243000 </v>
    <v>       0.33446000       0.66703000       0.12223000 </v>
    <v>       0.49971000       0.83538000       0.18278000 </v>
    <v>       0.66698000       0.66840000       0.12259000 </v>
    <v>       0.83488000       0.83403000       0.18294000 </v>
    <v>       0.33558000       0.99863000       0.24353000 </v>
    <v>       0.66801000       0.33262000       0.24229000 </v>
    <v>       0.00448000       0.66739000       0.24217000 </v>
    <v>       0.49742652       0.83103054       0.30347900 </v>
    <v>       0.66521000       0.67351000       0.24327000 </v>
    <v>       0.66620000       0.99680000       0.00000000 </v>
    <v>       0.66592665       0.99562089       0.36085486 </v>
    <v>       0.33213000       0.33386000       0.00135000 </v>
    <v>       0.33174580       0.33640327       0.36230882 </v>
    <v>       0.67040000       0.33673000       0.00321000 </v>
    <v>       0.66728000       0.99998000       0.12246000 </v>
    <v>       0.99806000       0.33495000       0.12235000 </v>
    <v>       0.33675000       0.33238000       0.12261000 </v>
   </varray>
  </structure>
  <varray name="primitive_index" >
   <v type="int" >        1 </v>
   <v type="int" >        2 </v>
   <v type="int" >        3 </v>
   <v type="int" >        4 </v>
   <v type="int" >        5 </v>
   <v type="int" >        6 </v>
   <v type="int" >        7 </v>
   <v type="int" >        8 </v>
   <v type="int" >        9 </v>
   <v type="int" >       10 </v>
   <v type="int" >       11 </v>
   <v type="int" >       12 </v>
   <v type="int" >       13 </v>
   <v type="int" >       14 </v>
   <v type="int" >       15 </v>
   <v type="int" >       16 </v>
   <v type="int" >       17 </v>
   <v type="int" >       18 </v>
   <v type="int" >       19 </v>
   <v type="int" >       20 </v>
   <v type="int" >       21 </v>
   <v type="int" >       22 </v>
   <v type="int" >       23 </v>
   <v type="int" >       24 </v>
   <v type="int" >       25 </v>
   <v type="int" >       26 </v>
   <v type="int" >       27 </v>
   <v type="int" >       28 </v>
   <v type="int" >       29 </v>
   <v type="int" >       30 </v>
   <v type="int" >       31 </v>
   <v type="int" >       32 </v>
   <v type="int" >       33 </v>
   <v type="int" >       34 </v>
   <v type="int" >       35 </v>
   <v type="int" >       36 </v>
   <v type="int" >       37 </v>
   <v type="int" >       38 </v>
   <v type="int" >       39 </v>
   <v type="int" >       40 </v>
   <v type="int" >       41 </v>
   <v type="int" >       42 </v>
   <v type="int" >       43 </v>
   <v type="int" >       44 </v>
   <v type="int" >       45 </v>
   <v type="int" >       46 </v>
   <v type="int" >       47 </v>
   <v type="int" >       48 </v>
   <v type="int" >       49 </v>
   <v type="int" >       50 </v>
   <v type="int" >       51 </v>
   <v type="int" >       52 </v>
   <v type="int" >       53 </v>
   <v type="int" >       54 </v>
   <v type="int" >       55 </v>
   <v type="int" >       56 </v>
   <v type="int" >       57 </v>
   <v type="int" >       58 </v>
   <v type="int" >       59 </v>
   <v type="int" >       60 </v>
   <v type="int" >       61 </v>
   <v type="int" >       62 </v>
  </varray>
 </primitive_cell>
 <kpoints>
  <generation param="Gamma">
   <v type="int" name="divisions">       4        4        1 </v>
   <v name="usershift">      0.00000000       0.00000000       0.00000000 </v>
   <v name="genvec1">      0.25000000       0.00000000       0.00000000 </v>
   <v name="genvec2">      0.00000000       0.25000000       0.00000000 </v>
   <v name="genvec3">      0.00000000       0.00000000       1.00000000 </v>
   <v name="shift">      0.00000000       0.00000000       0.00000000 </v>
  </generation>
  <varray name="kpointlist" >
   <v>       0.00000000       0.00000000       0.00000000 </v>
   <v>       0.25000000       0.00000000       0.00000000 </v>
   <v>       0.50000000       0.00000000       0.00000000 </v>
   <v>       0.00000000       0.25000000       0.00000000 </v>
   <v>       0.25000000       0.25000000       0.00000000 </v>
   <v>       0.50000000       0.25000000       0.00000000 </v>
   <v>      -0.25000000       0.25000000       0.00000000 </v>
   <v>       0.00000000       0.50000000       0.00000000 </v>
   <v>       0.25000000       0.50000000       0.00000000 </v>
   <v>       0.50000000       0.50000000       0.00000000 </v>
  </varray>
  <varray name="weights" >
   <v>       0.06250000 </v>
   <v>       0.12500000 </v>
   <v>       0.06250000 </v>
   <v>       0.12500000 </v>
   <v>       0.12500000 </v>
   <v>       0.12500000 </v>
   <v>       0.12500000 </v>
   <v>       0.06250000 </v>
   <v>       0.12500000 </v>
   <v>       0.06250000 </v>
  </varray>
 </kpoints>
 <parameters>
  <separator name="general" >
   <i type="string" name="SYSTEM">ni3al</i>
   <i type="logical" name="LCOMPAT"> F  </i>
  </separator>
  <separator name="electronic" >
   <i type="string" name="PREC">accura</i>
   <i name="ENMAX">    450.00000000</i>
   <i name="ENAUG">    519.42400000</i>
   <i name="EDIFF">      0.00001000</i>
   <i type="int" name="IALGO">    38</i>
   <i type="int" name="IWAVPR">    11</i>
   <i type="int" name="NBANDS">   359</i>
   <i type="int" name="NBANDSLOW">    -1</i>
   <i type="int" name="NBANDSHIGH">    -1</i>
   <i name="NELECT">    548.00000000</i>
   <i type="int" name="TURBO">     0</i>
   <i type="int" name="IRESTART">     0</i>
   <i type="int" name="NREBOOT">     0</i>
   <i type="int" name="NMIN">     0</i>
   <i name="EREF">      0.00000000</i>
   <separator name="electronic smearing" >
    <i type="int" name="ISMEAR">     1</i>
    <i name="SIGMA">      0.15000000</i>
    <i name="KSPACING">      0.50000000</i>
    <i type="logical" name="KGAMMA"> T  </i>
    <i type="logical" name="KBLOWUP"> T  </i>
   </separator>
   <separator name="electronic projectors" >
    <i type="logical" name="LREAL"> T  </i>
    <v name="ROPT">     -0.00025000     -0.00025000</v>
    <i type="int" name="LMAXPAW">  -100</i>
    <i type="int" name="LMAXMIX">     4</i>
    <i type="logical" name="NLSPLINE"> F  </i>
   </separator>
   <separator name="electronic startup" >
    <i type="int" name="ISTART">     0</i>
    <i type="int" name="ICHARG">     1</i>
    <i type="int" name="INIWAV">     1</i>
   </separator>
   <separator name="electronic spin" >
    <i type="int" name="ISPIN">     2</i>
    <i type="logical" name="LNONCOLLINEAR"> F  </i>
    <v name="MAGMOM">      1.00000000      1.00000000      1.00000000      1.00000000      1.00000000      1.00000000      1.00000000      1.00000000      1.00000000      1.00000000      1.00000000      1.00000000      1.00000000      1.00000000      1.00000000      1.00000000      1.00000000      1.00000000      1.00000000      1.00000000
      1.00000000      1.00000000      1.00000000      1.00000000      1.00000000      1.00000000      1.00000000      1.00000000      1.00000000      1.00000000      1.00000000      1.00000000      1.00000000      1.00000000      1.00000000      1.00000000      1.00000000      1.00000000      1.00000000      1.00000000
      1.00000000      1.00000000      1.00000000      1.00000000      1.00000000      1.00000000      1.00000000      1.00000000      1.00000000      1.00000000      1.00000000      1.00000000      1.00000000      1.00000000      1.00000000      1.00000000      1.00000000      1.00000000      1.00000000      1.00000000
      1.00000000      1.00000000</v>
    <i name="NUPDOWN">     -1.00000000</i>
    <i type="logical" name="LSORBIT"> F  </i>
    <v name="SAXIS">      0.00000000      0.00000000      1.00000000</v>
    <i type="logical" name="LSPIRAL"> F  </i>
    <v name="QSPIRAL">      0.00000000      0.00000000      0.00000000</v>
    <i type="logical" name="LZEROZ"> F  </i>
   </separator>
   <separator name="electronic exchange-correlation" >
    <i type="logical" name="LASPH"> F  </i>
    <i type="logical" name="LMETAGGA"> F  </i>
   </separator>
   <separator name="electronic convergence" >
    <i type="int" name="NELM">   150</i>
    <i type="int" name="NELMDL">     0</i>
    <i type="int" name="NELMIN">     2</i>
    <i name="ENINI">    450.00000000</i>
    <separator name="electronic convergence detail" >
     <i type="logical" name="LDIAG"> T  </i>
     <i type="logical" name="LSUBROT"> F  </i>
     <i name="WEIMIN">      0.00100000</i>
     <i name="EBREAK">      0.00000001</i>
     <i name="DEPER">      0.30000000</i>
     <i type="int" name="NRMM">     4</i>
     <i name="TIME">      0.40000000</i>
    </separator>
   </separator>
   <separator name="electronic mixer" >
    <i name="AMIX">      0.05000000</i>
    <i name="BMIX">      0.00010000</i>
    <i name="AMIN">      0.01000000</i>
    <i name="AMIX_MAG">      0.20000000</i>
    <i name="BMIX_MAG">      0.00010000</i>
    <separator name="electronic mixer details" >
     <i type="int" name="IMIX">     4</i>
     <i type="logical" name="MIXFIRST"> F  </i>
     <i type="int" name="MAXMIX">   -45</i>
     <i name="WC">    100.00000000</i>
     <i type="int" name="INIMIX">     1</i>
     <i type="int" name="MIXPRE">     1</i>
     <i type="int" name="MREMOVE">     5</i>
    </separator>
   </separator>
   <separator name="electronic dipolcorrection" >
    <i type="logical" name="LDIPOL"> T  </i>
    <i type="logical" name="LMONO"> F  </i>
    <i type="int" name="IDIPOL">     3</i>
    <i name="EPSILON">      1.00000000</i>
    <v name="DIPOL">   -100.00000000   -100.00000000   -100.00000000</v>
    <i name="EFIELD">      0.00000000</i>
   </separator>
  </separator>
  <separator name="grids" >
   <i type="int" name="NGX">    60</i>
   <i type="int" name="NGY">    60</i>
   <i type="int" name="NGZ">   168</i>
   <i type="int" name="NGXF">   120</i>
   <i type="int" name="NGYF">   120</i>
   <i type="int" name="NGZF">   336</i>
   <i type="logical" name="ADDGRID"> F  </i>
  </separator>
  <separator name="ionic" >
   <i type="int" name="NSW">   300</i>
   <i type="int" name="IBRION">     2</i>
   <i type="int" name="MDALGO">     0</i>
   <i type="int" name="ISIF">     2</i>
   <i name="PSTRESS">      0.00000000</i>
   <i name="EDIFFG">     -0.02000000</i>
   <i type="int" name="NFREE">     1</i>
   <i name="POTIM">      0.50000000</i>
   <i name="SMASS">     -3.00000000</i>
   <i name="SCALEE">      1.00000000</i>
  </separator>
  <separator name="ionic md" >
   <i name="TEBEG">      0.00010000</i>
   <i name="TEEND">      0.00010000</i>
   <i type="int" name="NBLOCK">     1</i>
   <i type="int" name="KBLOCK">   300</i>
   <i type="int" name="NPACO">   256</i>
   <i name="APACO">     10.00000000</i>
  </separator>
  <separator name="symmetry" >
   <i type="int" name="ISYM">     2</i>
   <i name="SYMPREC">      0.00001000</i>
  </separator>
  <separator name="dos" >
   <i type="int" name="LORBIT">     0</i>
   <v name="RWIGS">     -1.00000000     -1.00000000</v>
   <i type="int" name="NEDOS">   301</i>
   <i name="EMIN">     10.00000000</i>
   <i name="EMAX">    -10.00000000</i>
   <i name="EFERMI">      0.00000000</i>
  </separator>
  <separator name="writing" >
   <i type="int" name="NWRITE">     2</i>
   <i type="logical" name="LWAVE"> F  </i>
   <i type="logical" name="LDOWNSAMPLE"> F  </i>
   <i type="logical" name="LCHARG"> F  </i>
   <i type="logical" name="LPARD"> F  </i>
   <i type="logical" name="LVTOT"> F  </i>
   <i type="logical" name="LVHAR"> F  </i>
   <i type="logical" name="LELF"> F  </i>
   <i type="logical" name="LOPTICS"> F  </i>
   <v name="STM">      0.00000000      0.00000000      0.00000000      0.00000000      0.00000000      0.00000000      0.00000000</v>
  </separator>
  <separator name="performance" >
   <i type="int" name="NPAR">     1</i>
   <i type="int" name="NSIM">     4</i>
   <i type="int" name="NBLK">    -1</i>
   <i type="logical" name="LPLANE"> T  </i>
   <i type="logical" name="LSCALAPACK"> T  </i>
   <i type="logical" name="LSCAAWARE"> F  </i>
   <i type="logical" name="LSCALU"> F  </i>
   <i type="logical" name="LASYNC"> F  </i>
   <i type="logical" name="LORBITALREAL"> F  </i>
  </separator>
  <separator name="miscellaneous" >
   <i type="int" name="IDIOT">     3</i>
   <i type="int" name="PHON_NSTRUCT">    -1</i>
   <i type="logical" name="LMUSIC"> F  </i>
   <v name="POMASS">     55.84700000     51.99600000</v>
   <v name="DARWINR">      0.00000000      0.00000000</v>
   <v name="DARWINV">      1.00000000      1.00000000</v>
   <i type="logical" name="LCORR"> T  </i>
  </separator>
  <i type="logical" name="GGA_COMPAT"> T  </i>
  <i type="logical" name="LBERRY"> F  </i>
  <i type="int" name="ICORELEVEL">     0</i>
  <i type="logical" name="LDAU"> F  </i>
  <i type="int" name="I_CONSTRAINED_M">     0</i>
  <separator name="electronic exchange-correlation" >
   <i type="string" name="GGA">--</i>
   <i type="int" name="VOSKOWN">     0</i>
   <i type="logical" name="LHFCALC"> F  </i>
   <i type="string" name="PRECFOCK"></i>
   <i type="logical" name="LSYMGRAD"> F  </i>
   <i type="logical" name="LHFONE"> F  </i>
   <i type="logical" name="LRHFCALC"> F  </i>
   <i type="logical" name="LTHOMAS"> F  </i>
   <i type="logical" name="LMODELHF"> F  </i>
   <i type="logical" name="LFOCKACE"> F  </i>
   <i name="ENCUT4O">     -1.00000000</i>
   <i type="int" name="EXXOEP">     0</i>
   <i type="int" name="FOURORBIT">     0</i>
   <i name="AEXX">      0.00000000</i>
   <i name="HFALPHA">      0.00000000</i>
   <i name="MCALPHA">      0.00000000</i>
   <i name="ALDAX">      1.00000000</i>
   <i name="AGGAX">      1.00000000</i>
   <i name="ALDAC">      1.00000000</i>
   <i name="AGGAC">      1.00000000</i>
   <i type="int" name="NKREDX">     1</i>
   <i type="int" name="NKREDY">     1</i>
   <i type="int" name="NKREDZ">     1</i>
   <i type="logical" name="SHIFTRED"> F  </i>
   <i type="logical" name="ODDONLY"> F  </i>
   <i type="logical" name="EVENONLY"> F  </i>
   <i type="int" name="LMAXFOCK">     0</i>
   <i type="int" name="NMAXFOCKAE">     0</i>
   <i type="logical" name="LFOCKAEDFT"> F  </i>
   <i name="HFSCREEN">      0.00000000</i>
   <i name="HFSCREENC">      0.00000000</i>
   <i type="int" name="NBANDSGWLOW">     0</i>
  </separator>
  <separator name="vdW DFT" >
   <i type="logical" name="LUSE_VDW"> F  </i>
   <i name="Zab_VDW">     -0.84910000</i>
   <i name="PARAM1">      0.12340000</i>
   <i name="PARAM2">      1.00000000</i>
   <i name="PARAM3">      0.00000000</i>
  </separator>
  <separator name="model GW" >
   <i type="int" name="MODEL_GW">     0</i>
   <i name="MODEL_EPS0">     16.55509166</i>
   <i name="MODEL_ALPHA">      1.00000000</i>
  </separator>
  <separator name="linear response parameters" >
   <i type="logical" name="LEPSILON"> F  </i>
   <i type="logical" name="LRPA"> F  </i>
   <i type="logical" name="LNABLA"> F  </i>
   <i type="logical" name="LVEL"> F  </i>
   <i name="CSHIFT">      0.10000000</i>
   <i name="OMEGAMAX">     -1.00000000</i>
   <i name="DEG_THRESHOLD">      0.00200000</i>
   <i name="RTIME">     -0.10000000</i>
   <i name="WPLASMAI">      0.00000000</i>
   <v name="DFIELD">      0.00000000      0.00000000      0.00000000</v>
   <v name="WPLASMA">      0.00000000      0.00000000      0.00000000      0.00000000      0.00000000      0.00000000      0.00000000      0.00000000      0.00000000</v>
  </separator>
  <separator name="orbital magnetization" >
   <i type="logical" name="NUCIND"> F  </i>
   <v name="MAGPOS">      0.00000000      0.00000000      0.00000000</v>
   <i type="logical" name="LNICSALL"> T  </i>
   <i type="logical" name="ORBITALMAG"> F  </i>
   <i type="logical" name="LMAGBLOCH"> F  </i>
   <i type="logical" name="LCHIMAG"> F  </i>
   <i type="logical" name="LGAUGE"> T  </i>
   <i type="int" name="MAGATOM">     0</i>
   <v name="MAGDIPOL">      0.00000000      0.00000000      0.00000000</v>
   <v name="AVECCONST">      0.00000000      0.00000000      0.00000000</v>
  </separator>
  <separator name="response functions" >
   <i type="logical" name="LFINITE_TEMPERATURE"> F  </i>
   <i type="logical" name="LADDER"> F  </i>
   <i type="logical" name="LRPAFORCE"> F  </i>
   <i type="logical" name="LFXC"> F  </i>
   <i type="logical" name="LHARTREE"> T  </i>
   <i type="int" name="IBSE">     0</i>
   <v type="int" name="KPOINT">    -1     0     0     0</v>
   <i type="logical" name="LTCTC"> F  </i>
   <i type="logical" name="LTCTE"> F  </i>
   <i type="logical" name="LTETE"> F  </i>
   <i type="logical" name="LTRIPLET"> F  </i>
   <i type="logical" name="LFXCEPS"> F  </i>
   <i type="logical" name="LFXHEG"> F  </i>
   <i type="int" name="NATURALO">     2</i>
   <i type="logical" name="LHOLEGF"> F  </i>
   <i type="logical" name="L2ORDER"> F  </i>
   <i type="logical" name="LDMP1"> F  </i>
   <i type="logical" name="LMP2LT"> F  </i>
   <i type="logical" name="LSMP2LT"> F  </i>
   <i type="logical" name="LGWLF"> F  </i>
   <i name="ENCUTGW">     -2.00000000</i>
   <i name="ENCUTGWSOFT">     -2.00000000</i>
   <i name="ENCUTLF">     -1.00000000</i>
   <i type="logical" name="LESF_SPLINES"> F  </i>
   <i type="int" name="LMAXMP2">    -1</i>
   <i name="SCISSOR">      0.00000000</i>
   <i type="int" name="NOMEGA">     0</i>
   <i type="int" name="NOMEGAR">     0</i>
   <i type="int" name="NBANDSGW">    -1</i>
   <i type="int" name="NBANDSO">    -1</i>
   <i type="int" name="NBANDSV">    -1</i>
   <i type="int" name="NELMGW">     1</i>
   <i type="int" name="NELMHF">     1</i>
   <i type="int" name="DIM">     3</i>
   <i type="int" name="IESPILON">     4</i>
   <i type="int" name="ANTIRES">     0</i>
   <i name="OMEGAMAX">    -30.00000000</i>
   <i name="OMEGAMIN">    -30.00000000</i>
   <i name="OMEGATL">   -200.00000000</i>
   <i type="int" name="OMEGAGRID">     0</i>
   <i name="CSHIFT">     -0.10000000</i>
   <i type="logical" name="LSELFENERGY"> F  </i>
   <i type="logical" name="LSPECTRAL"> F  </i>
   <i type="logical" name="LSPECTRALGW"> F  </i>
   <i type="logical" name="LSINGLES"> F  </i>
   <i type="logical" name="LFERMIGW"> F  </i>
   <i type="logical" name="ODDONLYGW"> F  </i>
   <i type="logical" name="EVENONLYGW"> F  </i>
   <i type="int" name="NKREDLFX">     1</i>
   <i type="int" name="NKREDLFY">     1</i>
   <i type="int" name="NKREDLFZ">     1</i>
   <i type="int" name="MAXMEM">  2800</i>
   <i type="int" name="TELESCOPE">     0</i>
   <i type="int" name="NTAUPAR">    -1</i>
   <i type="int" name="NOMEGAPAR">    -1</i>
   <i name="DAMP_NEWTON">      0.80000001</i>
   <i name="LAMBDA">      1.00000000</i>
  </separator>
  <separator name="External order field" >
   <i name="OFIELD_KAPPA">      0.00000000</i>
   <v name="OFIELD_K">      0.00000000      0.00000000      0.00000000</v>
   <i name="OFIELD_Q6_NEAR">      0.00000000</i>
   <i name="OFIELD_Q6_FAR">      0.00000000</i>
   <i name="OFIELD_A">      0.00000000</i>
  </separator>
  <separator name="optional k-points parameters" >
   <i type="int" name="KPOINTS_OPT_MODE">     1</i>
   <i type="logical" name="LKPOINTS_OPT"> F  </i>
  </separator>
  <separator name="solvation model" >
   <i type="logical" name="LSOL"> F  </i>
  </separator>
 </parameters>
 <atominfo>
  <atoms>      62 </atoms>
  <types>       2 </types>
  <array name="atoms" >
   <dimension dim="1">ion</dimension>
   <field type="string">element</field>
   <field type="int">atomtype</field>
   <set>
    <rc><c>Fe</c><c>   1</c></rc>
    <rc><c>Fe</c><c>   1</c></rc>
    <rc><c>Fe</c><c>   1</c></rc>
    <rc><c>Fe</c><c>   1</c></rc>
    <rc><c>Fe</c><c>   1</c></rc>
    <rc><c>Fe</c><c>   1</c></rc>
    <rc><c>Fe</c><c>   1</c></rc>
    <rc><c>Fe</c><c>   1</c></rc>
    <rc><c>Fe</c><c>   1</c></rc>
    <rc><c>Fe</c><c>   1</c></rc>
    <rc><c>Fe</c><c>   1</c></rc>
    <rc><c>Fe</c><c>   1</c></rc>
    <rc><c>Fe</c><c>   1</c></rc>
    <rc><c>Fe</c><c>   1</c></rc>
    <rc><c>Fe</c><c>   1</c></rc>
    <rc><c>Fe</c><c>   1</c></rc>
    <rc><c>Fe</c><c>   1</c></rc>
    <rc><c>Fe</c><c>   1</c></rc>
    <rc><c>Fe</c><c>   1</c></rc>
    <rc><c>Fe</c><c>   1</c></rc>
    <rc><c>Fe</c><c>   1</c></rc>
    <rc><c>Fe</c><c>   1</c></rc>
    <rc><c>Fe</c><c>   1</c></rc>
    <rc><c>Fe</c><c>   1</c></rc>
    <rc><c>Fe</c><c>   1</c></rc>
    <rc><c>Fe</c><c>   1</c></rc>
    <rc><c>Fe</c><c>   1</c></rc>
    <rc><c>Fe</c><c>   1</c></rc>
    <rc><c>Fe</c><c>   1</c></rc>
    <rc><c>Fe</c><c>   1</c></rc>
    <rc><c>Fe</c><c>   1</c></rc>
    <rc><c>Fe</c><c>   1</c></rc>
    <rc><c>Fe</c><c>   1</c></rc>
    <rc><c>Fe</c><c>   1</c></rc>
    <rc><c>Fe</c><c>   1</c></rc>
    <rc><c>Fe</c><c>   1</c></rc>
    <rc><c>Fe</c><c>   1</c></rc>
    <rc><c>Fe</c><c>   1</c></rc>
    <rc><c>Fe</c><c>   1</c></rc>
    <rc><c>Fe</c><c>   1</c></rc>
    <rc><c>Fe</c><c>   1</c></rc>
    <rc><c>Fe</c><c>   1</c></rc>
    <rc><c>Fe</c><c>   1</c></rc>
    <rc><c>Fe</c><c>   1</c></rc>
    <rc><c>Fe</c><c>   1</c></rc>
    <rc><c>Fe</c><c>   1</c></rc>
    <rc><c>Fe</c><c>   1</c></rc>
    <rc><c>Fe</c><c>   1</c></rc>
    <rc><c>Fe</c><c>   1</c></rc>
    <rc><c>Cr</c><c>   2</c></rc>
    <rc><c>Cr</c><c>   2</c></rc>
    <rc><c>Cr</c><c>   2</c></rc>
    <rc><c>Cr</c><c>   2</c></rc>
    <rc><c>Cr</c><c>   2</c></rc>
    <rc><c>Cr</c><c>   2</c></rc>
    <rc><c>Cr</c><c>   2</c></rc>
    <rc><c>Cr</c><c>   2</c></rc>
    <rc><c>Cr</c><c>   2</c></rc>
    <rc><c>Cr</c><c>   2</c></rc>
    <rc><c>Cr</c><c>   2</c></rc>
    <rc><c>Cr</c><c>   2</c></rc>
    <rc><c>Cr</c><c>   2</c></rc>
   </set>
  </array>
  <array name="atomtypes" >
   <dimension dim="1">type</dimension>
   <field type="int">atomspertype</field>
   <field type="string">element</field>
   <field>mass</field>
   <field>valence</field>
   <field type="string">pseudopotential</field>
   <set>
    <rc><c>  49</c><c>Fe</c><c>     55.84700000</c><c>      8.00000000</c><c>  PAW_PBE Fe 06Sep2000                  </c></rc>
    <rc><c>  13</c><c>Cr</c><c>     51.99600000</c><c>     12.00000000</c><c>  PAW_PBE Cr_pv 02Aug2007               </c></rc>
   </set>
  </array>
 </atominfo>
 <structure name="initialpos" >
  <crystal>
   <varray name="basis" >
    <v>       8.53269958       0.00000000       0.00000000 </v>
    <v>      -0.00051933       8.49699972       0.00000000 </v>
    <v>       0.00000000       0.00000000      23.59499931 </v>
   </varray>
   <i name="volume">   1710.69280467 </i>
   <varray name="rec_basis" >
    <v>       0.11719620       0.00000716       0.00000000 </v>
    <v>       0.00000000       0.11768860       0.00000000 </v>
    <v>       0.00000000       0.00000000       0.04238186 </v>
   </varray>
  </crystal>
  <varray name="positions" >
   <v>       0.00086000       0.99993000       0.24271000 </v>
   <v>       0.16582510       0.16687191       0.30359811 </v>
   <v>       0.50119068       0.16882397       0.30317387 </v>
   <v>       0.66822000       0.00107000       0.24272000 </v>
   <v>       0.83475755       0.16959563       0.30326156 </v>
   <v>       0.00044000       0.33497000       0.24240000 </v>
   <v>       0.16549445       0.49995658       0.30347876 </v>
   <v>       0.33469000       0.33305000       0.24267000 </v>
   <v>       0.50233275       0.49954053       0.30278627 </v>
   <v>       0.83323483       0.50163357       0.30325824 </v>
   <v>       0.16762456       0.83354547       0.30434707 </v>
   <v>       0.33342000       0.66555000       0.24261000 </v>
   <v>       0.83612142       0.83116009       0.30362450 </v>
   <v>       0.00064000       0.00119000       0.00199000 </v>
   <v>       0.00042755       0.00004460       0.36118614 </v>
   <v>       0.16843000       0.16962000       0.06269000 </v>
   <v>       0.33460000       0.00297000       0.00254000 </v>
   <v>       0.33356295       0.00173459       0.36153765 </v>
   <v>       0.50463000       0.16850000       0.06120000 </v>
   <v>       0.83272000       0.16670000       0.06193000 </v>
   <v>       0.00004000       0.33467000       0.00213000 </v>
   <v>       0.00151203       0.33453016       0.36078237 </v>
   <v>       0.16757000       0.49895000       0.06268000 </v>
   <v>       0.50099000       0.49896000       0.06206000 </v>
   <v>       0.83393000       0.50234000       0.06235000 </v>
   <v>       0.00121000       0.66785000       0.00188000 </v>
   <v>       0.00036228       0.66655132       0.36076412 </v>
   <v>       0.16792000       0.83462000       0.06228000 </v>
   <v>       0.33437000       0.66664000       0.00225000 </v>
   <v>       0.33525215       0.66497282       0.36186884 </v>
   <v>       0.50152000       0.83563000       0.06217000 </v>
   <v>       0.66753000       0.66705000       0.00175000 </v>
   <v>       0.66698635       0.66632422       0.36035327 </v>
   <v>       0.83293000       0.83584000       0.06235000 </v>
   <v>       0.00121000       0.00098000       0.12225000 </v>
   <v>       0.16700000       0.16811000       0.18239000 </v>
   <v>       0.33470000       0.00227000       0.12192000 </v>
   <v>       0.50174000       0.16716000       0.18263000 </v>
   <v>       0.83421000       0.16639000       0.18283000 </v>
   <v>       0.16964000       0.49868000       0.18209000 </v>
   <v>       0.50219000       0.50081000       0.18317000 </v>
   <v>       0.66741000       0.33395000       0.12233000 </v>
   <v>       0.83134000       0.50253000       0.18283000 </v>
   <v>       0.00132000       0.66795000       0.12253000 </v>
   <v>       0.16898000       0.83509000       0.18243000 </v>
   <v>       0.33446000       0.66703000       0.12223000 </v>
   <v>       0.49971000       0.83538000       0.18278000 </v>
   <v>       0.66698000       0.66840000       0.12259000 </v>
   <v>       0.83488000       0.83403000       0.18294000 </v>
   <v>       0.33558000       0.99863000       0.24353000 </v>
   <v>       0.66801000       0.33262000       0.24229000 </v>
   <v>       0.00448000       0.66739000       0.24217000 </v>
   <v>       0.49742652       0.83103054       0.30347900 </v>
   <v>       0.66521000       0.67351000       0.24327000 </v>
   <v>       0.66620000       0.99680000       0.00000000 </v>
   <v>       0.66592665       0.99562089       0.36085486 </v>
   <v>       0.33213000       0.33386000       0.00135000 </v>
   <v>       0.33174580       0.33640327       0.36230882 </v>
   <v>       0.67040000       0.33673000       0.00321000 </v>
   <v>       0.66728000       0.99998000       0.12246000 </v>
   <v>       0.99806000       0.33495000       0.12235000 </v>
   <v>       0.33675000       0.33238000       0.12261000 </v>
  </varray>
  <varray name="selective"  type="logical" >
   <v type="logical" >  F  F  F </v>
   <v type="logical" >  T  T  T </v>
   <v type="logical" >  T  T  T </v>
   <v type="logical" >  F  F  F </v>
   <v type="logical" >  T  T  T </v>
   <v type="logical" >  F  F  F </v>
   <v type="logical" >  T  T  T </v>
   <v type="logical" >  F  F  F </v>
   <v type="logical" >  T  T  T </v>
   <v type="logical" >  T  T  T </v>
   <v type="logical" >  T  T  T </v>
   <v type="logical" >  F  F  F </v>
   <v type="logical" >  T  T  T </v>
   <v type="logical" >  F  F  F </v>
   <v type="logical" >  T  T  T </v>
   <v type="logical" >  F  F  F </v>
   <v type="logical" >  F  F  F </v>
   <v type="logical" >  T  T  T </v>
   <v type="logical" >  F  F  F </v>
   <v type="logical" >  F  F  F </v>
   <v type="logical" >  F  F  F </v>
   <v type="logical" >  T  T  T </v>
   <v type="logical" >  F  F  F </v>
   <v type="logical" >  F  F  F </v>
   <v type="logical" >  F  F  F </v>
   <v type="logical" >  F  F  F </v>
   <v type="logical" >  T  T  T </v>
   <v type="logical" >  F  F  F </v>
   <v type="logical" >  F  F  F </v>
   <v type="logical" >  T  T  T </v>
   <v type="logical" >  F  F  F </v>
   <v type="logical" >  F  F  F </v>
   <v type="logical" >  T  T  T </v>
   <v type="logical" >  F  F  F </v>
   <v type="logical" >  F  F  F </v>
   <v type="logical" >  F  F  F </v>
   <v type="logical" >  F  F  F </v>
   <v type="logical" >  F  F  F </v>
   <v type="logical" >  F  F  F </v>
   <v type="logical" >  F  F  F </v>
   <v type="logical" >  F  F  F </v>
   <v type="logical" >  F  F  F </v>
   <v type="logical" >  F  F  F </v>
   <v type="logical" >  F  F  F </v>
   <v type="logical" >  F  F  F </v>
   <v type="logical" >  F  F  F </v>
   <v type="logical" >  F  F  F </v>
   <v type="logical" >  F  F  F </v>
   <v type="logical" >  F  F  F </v>
   <v type="logical" >  F  F  F </v>
   <v type="logical" >  F  F  F </v>
   <v type="logical" >  F  F  F </v>
   <v type="logical" >  T  T  T </v>
   <v type="logical" >  F  F  F </v>
   <v type="logical" >  F  F  F </v>
   <v type="logical" >  T  T  T </v>
   <v type="logical" >  F  F  F </v>
   <v type="logical" >  T  T  T </v>
   <v type="logical" >  F  F  F </v>
   <v type="logical" >  F  F  F </v>
   <v type="logical" >  F  F  F </v>
   <v type="logical" >  F  F  F </v>
  </varray>
  <nose>
   <v>      -3.00000000       0.00000000       0.00010000       0.00010000 </v>
  </nose>
 </structure>
 <calculation>
  <scstep>
   <time name="dav">  118.59   17.09</time>
   <time name="total">  140.91   22.89</time>
   <dipole>
    <v name="dipole">      0.00000000       0.00000000       0.00006838 </v>
    <i name="Tr[quadrupol]">  -6803.43449680 </i>
    <i name="Echarged">      0.00000000 </i>
    <i name="Edipol_quadrupol">      0.00000000 </i>
    <i name="Eion">      0.00000000 </i>
   </dipole>
   <energy>
    <i name="alphaZ">   1718.82899870 </i>
    <i name="ewald"> 208922.90386005 </i>
    <i name="hartreedc">-257509.03968902 </i>
    <i name="XCdc">    904.39192494 </i>
    <i name="pawpsdc">  44177.17802851 </i>
    <i name="pawaedc"> -45183.88335630 </i>
    <i name="eentropy">      0.00122382 </i>
    <i name="bandstr">   1706.18139417 </i>
    <i name="atom">  50544.06543380 </i>
    <i name="e_fr_energy">   5280.62781868 </i>
    <i name="e_wo_entrp">   5280.62659486 </i>
    <i name="e_0_energy">   5280.62741074 </i>
   </energy>
  </scstep>
  <scstep>
   <time name="dav">  113.47   16.31</time>
   <time name="total">  113.49   16.33</time>
   <dipole>
    <v name="dipole">      0.00000000       0.00000000       0.00006838 </v>
    <i name="Tr[quadrupol]">  -6803.43449680 </i>
    <i name="Echarged">      0.00000000 </i>
    <i name="Edipol_quadrupol">      0.00000000 </i>
    <i name="Eion">      0.00000000 </i>
   </dipole>
   <energy>
    <i name="e_fr_energy">    -99.50590039 </i>
    <i name="e_wo_entrp">    -99.50800439 </i>
    <i name="e_0_energy">    -99.50660172 </i>
   </energy>
  </scstep>
  <scstep>
   <time name="dav">  116.29   16.76</time>
   <time name="total">  116.34   16.79</time>
   <dipole>
    <v name="dipole">      0.00000000       0.00000000       0.00006838 </v>
    <i name="Tr[quadrupol]">  -6803.43449680 </i>
    <i name="Echarged">      0.00000000 </i>
    <i name="Edipol_quadrupol">      0.00000000 </i>
    <i name="Eion">      0.00000000 </i>
   </dipole>
   <energy>
    <i name="e_fr_energy">   -517.34303357 </i>
    <i name="e_wo_entrp">   -517.33939258 </i>
    <i name="e_0_energy">   -517.34181991 </i>
   </energy>
  </scstep>
  <scstep>
   <time name="dav">  179.88   25.90</time>
   <time name="total">  179.95   25.91</time>
   <dipole>
    <v name="dipole">      0.00000000       0.00000000       0.00006838 </v>
    <i name="Tr[quadrupol]">  -6803.43449680 </i>
    <i name="Echarged">      0.00000000 </i>
    <i name="Edipol_quadrupol">      0.00000000 </i>
    <i name="Eion">      0.00000000 </i>
   </dipole>
   <energy>
    <i name="e_fr_energy">   -574.85202721 </i>
    <i name="e_wo_entrp">   -574.86796362 </i>
    <i name="e_0_energy">   -574.85733934 </i>
   </energy>
  </scstep>
  <scstep>
   <time name="dav">  166.20   24.05</time>
   <time name="total">  169.83   24.98</time>
   <dipole>
    <v name="dipole">      0.00000000       0.00000000       0.00006838 </v>
    <i name="Tr[quadrupol]">  -6803.43449680 </i>
    <i name="Echarged">      0.00000000 </i>
    <i name="Edipol_quadrupol">      0.00000000 </i>
    <i name="Eion">      0.00000000 </i>
   </dipole>
   <energy>
    <i name="e_fr_energy">   -578.04781096 </i>
    <i name="e_wo_entrp">   -578.06738922 </i>
    <i name="e_0_energy">   -578.05433705 </i>
   </energy>
  </scstep>
  <scstep>
   <time name="dav">  183.19   26.40</time>
   <time name="total">  209.70   33.00</time>
   <dipole>
    <v name="dipole">      0.00000000       0.00000000       0.87770598 </v>
    <i name="Tr[quadrupol]">  -6826.90721694 </i>
    <i name="Echarged">      0.00000000 </i>
    <i name="Edipol_quadrupol">      0.00000000 </i>
    <i name="Eion">      0.00000000 </i>
   </dipole>
   <energy>
    <i name="e_fr_energy">   -683.38440948 </i>
    <i name="e_wo_entrp">   -683.36908560 </i>
    <i name="e_0_energy">   -683.37930152 </i>
   </energy>
  </scstep>
  <scstep>
   <time name="dav">  187.44   26.93</time>
   <time name="total">  212.50   33.50</time>
   <dipole>
    <v name="dipole">      0.00000000       0.00000000      -1.21901403 </v>
    <i name="Tr[quadrupol]">  -6813.88907272 </i>
    <i name="Echarged">      0.00000000 </i>
    <i name="Edipol_quadrupol">      0.00000000 </i>
    <i name="Eion">      0.00000000 </i>
   </dipole>
   <energy>
    <i name="e_fr_energy">   -621.93569212 </i>
    <i name="e_wo_entrp">   -621.96290371 </i>
    <i name="e_0_energy">   -621.94476265 </i>
   </energy>
  </scstep>
  <scstep>
   <time name="dav">  183.63   26.42</time>
   <time name="total">  209.47   32.99</time>
   <dipole>
    <v name="dipole">      0.00000000       0.00000000       0.60055565 </v>
    <i name="Tr[quadrupol]">  -6812.10501564 </i>
    <i name="Echarged">      0.00000000 </i>
    <i name="Edipol_quadrupol">      0.00000000 </i>
    <i name="Eion">      0.00000000 </i>
   </dipole>
   <energy>
    <i name="e_fr_energy">   -551.47996757 </i>
    <i name="e_wo_entrp">   -551.47018231 </i>
    <i name="e_0_energy">   -551.47670582 </i>
   </energy>
  </scstep>
  <scstep>
   <time name="dav">  171.38   24.76</time>
   <time name="total">  197.85   31.34</time>
   <dipole>
    <v name="dipole">      0.00000000       0.00000000      -0.09705466 </v>
    <i name="Tr[quadrupol]">  -6812.70775843 </i>
    <i name="Echarged">      0.00000000 </i>
    <i name="Edipol_quadrupol">      0.00000000 </i>
    <i name="Eion">      0.00000000 </i>
   </dipole>
   <energy>
    <i name="e_fr_energy">   -523.22194654 </i>
    <i name="e_wo_entrp">   -523.25657129 </i>
    <i name="e_0_energy">   -523.23348812 </i>
   </energy>
  </scstep>
  <scstep>
   <time name="dav">  163.59   23.52</time>
   <time name="total">  190.16   30.14</time>
   <dipole>
    <v name="dipole">      0.00000000       0.00000000       0.09147091 </v>
    <i name="Tr[quadrupol]">  -6814.38401790 </i>
    <i name="Echarged">      0.00000000 </i>
    <i name="Edipol_quadrupol">      0.00000000 </i>
    <i name="Eion">      0.00000000 </i>
   </dipole>
   <energy>
    <i name="e_fr_energy">   -503.02206628 </i>
    <i name="e_wo_entrp">   -503.01567456 </i>
    <i name="e_0_energy">   -503.01993571 </i>
   </energy>
  </scstep>
  <scstep>
   <time name="dav">  151.80   22.01</time>
   <time name="total">  177.38   28.56</time>
   <dipole>
    <v name="dipole">      0.00000000       0.00000000      -0.07876471 </v>
    <i name="Tr[quadrupol]">  -6819.67755516 </i>
    <i name="Echarged">      0.00000000 </i>
    <i name="Edipol_quadrupol">      0.00000000 </i>
    <i name="Eion">      0.00000000 </i>
   </dipole>
   <energy>
    <i name="e_fr_energy">   -490.21373257 </i>
    <i name="e_wo_entrp">   -490.23069171 </i>
    <i name="e_0_energy">   -490.21938562 </i>
   </energy>
  </scstep>
  <scstep>
   <time name="dav">  151.89   22.05</time>
   <time name="total">  177.46   28.60</time>
   <dipole>
    <v name="dipole">      0.00000000       0.00000000       0.01768114 </v>
    <i name="Tr[quadrupol]">  -6823.30441122 </i>
    <i name="Echarged">      0.00000000 </i>
    <i name="Edipol_quadrupol">      0.00000000 </i>
    <i name="Eion">      0.00000000 </i>
   </dipole>
   <energy>
    <i name="e_fr_energy">   -486.59943133 </i>
    <i name="e_wo_entrp">   -486.63106669 </i>
    <i name="e_0_energy">   -486.60997645 </i>
   </energy>
  </scstep>
  <scstep>
   <time name="dav">  154.47   22.26</time>
   <time name="total">  180.33   28.92</time>
   <dipole>
    <v name="dipole">      0.00000000       0.00000000       0.09720077 </v>
    <i name="Tr[quadrupol]">  -6824.59188318 </i>
    <i name="Echarged">      0.00000000 </i>
    <i name="Edipol_quadrupol">      0.00000000 </i>
    <i name="Eion">      0.00000000 </i>
   </dipole>
   <energy>
    <i name="e_fr_energy">   -487.28399247 </i>
    <i name="e_wo_entrp">   -487.29588890 </i>
    <i name="e_0_energy">   -487.28795795 </i>
   </energy>
  </scstep>
  <scstep>
   <time name="dav">  134.27   19.28</time>
   <time name="total">  160.70   25.88</time>
   <dipole>
    <v name="dipole">      0.00000000       0.00000000       0.09200843 </v>
    <i name="Tr[quadrupol]">  -6824.73391927 </i>
    <i name="Echarged">      0.00000000 </i>
    <i name="Edipol_quadrupol">      0.00000000 </i>
    <i name="Eion">      0.00000000 </i>
   </dipole>
   <energy>
    <i name="e_fr_energy">   -487.40788371 </i>
    <i name="e_wo_entrp">   -487.42104121 </i>
    <i name="e_0_energy">   -487.41226955 </i>
   </energy>
  </scstep>
  <scstep>
   <time name="dav">  190.55   27.31</time>
   <time name="total">  217.16   33.90</time>
   <dipole>
    <v name="dipole">      0.00000000       0.00000000       0.10543178 </v>
    <i name="Tr[quadrupol]">  -6824.69157092 </i>
    <i name="Echarged">      0.00000000 </i>
    <i name="Edipol_quadrupol">      0.00000000 </i>
    <i name="Eion">      0.00000000 </i>
   </dipole>
   <energy>
    <i name="e_fr_energy">   -487.41494070 </i>
    <i name="e_wo_entrp">   -487.42716428 </i>
    <i name="e_0_energy">   -487.41901522 </i>
   </energy>
  </scstep>
  <scstep>
   <time name="dav">  178.26   25.66</time>
   <time name="total">  204.96   32.28</time>
   <dipole>
    <v name="dipole">      0.00000000       0.00000000       0.05726162 </v>
    <i name="Tr[quadrupol]">  -6825.97029034 </i>
    <i name="Echarged">      0.00000000 </i>
    <i name="Edipol_quadrupol">      0.00000000 </i>
    <i name="Eion">      0.00000000 </i>
   </dipole>
   <energy>
    <i name="e_fr_energy">   -488.72304289 </i>
    <i name="e_wo_entrp">   -488.73895796 </i>
    <i name="e_0_energy">   -488.72834791 </i>
   </energy>
  </scstep>
  <scstep>
   <time name="dav">  171.78   24.68</time>
   <time name="total">  198.56   31.31</time>
   <dipole>
    <v name="dipole">      0.00000000       0.00000000      -0.00646224 </v>
    <i name="Tr[quadrupol]">  -6829.49210489 </i>
    <i name="Echarged">      0.00000000 </i>
    <i name="Edipol_quadrupol">      0.00000000 </i>
    <i name="Eion">      0.00000000 </i>
   </dipole>
   <energy>
    <i name="e_fr_energy">   -492.86344846 </i>
    <i name="e_wo_entrp">   -492.83922902 </i>
    <i name="e_0_energy">   -492.85537531 </i>
   </energy>
  </scstep>
  <scstep>
   <time name="dav">  170.88   24.64</time>
   <time name="total">  197.13   31.25</time>
   <dipole>
    <v name="dipole">      0.00000000       0.00000000       0.03441239 </v>
    <i name="Tr[quadrupol]">  -6832.27174145 </i>
    <i name="Echarged">      0.00000000 </i>
    <i name="Edipol_quadrupol">      0.00000000 </i>
    <i name="Eion">      0.00000000 </i>
   </dipole>
   <energy>
    <i name="e_fr_energy">   -496.13949629 </i>
    <i name="e_wo_entrp">   -496.11967420 </i>
    <i name="e_0_energy">   -496.13288893 </i>
   </energy>
  </scstep>
  <scstep>
   <time name="dav">  171.01   24.67</time>
   <time name="total">  197.25   31.35</time>
   <dipole>
    <v name="dipole">      0.00000000       0.00000000      -0.03992177 </v>
    <i name="Tr[quadrupol]">  -6833.32960304 </i>
    <i name="Echarged">      0.00000000 </i>
    <i name="Edipol_quadrupol">      0.00000000 </i>
    <i name="Eion">      0.00000000 </i>
   </dipole>
   <energy>
    <i name="e_fr_energy">   -496.38758460 </i>
    <i name="e_wo_entrp">   -496.38838937 </i>
    <i name="e_0_energy">   -496.38785286 </i>
   </energy>
  </scstep>
  <scstep>
   <time name="dav">  169.57   24.38</time>
   <time name="total">  195.79   30.98</time>
   <dipole>
    <v name="dipole">      0.00000000       0.00000000       0.03930477 </v>
    <i name="Tr[quadrupol]">  -6833.93781680 </i>
    <i name="Echarged">      0.00000000 </i>
    <i name="Edipol_quadrupol">      0.00000000 </i>
    <i name="Eion">      0.00000000 </i>
   </dipole>
   <energy>
    <i name="e_fr_energy">   -497.06239109 </i>
    <i name="e_wo_entrp">   -497.06861655 </i>
    <i name="e_0_energy">   -497.06446624 </i>
   </energy>
  </scstep>
  <scstep>
   <time name="dav">  174.89   25.16</time>
   <time name="total">  201.17   31.76</time>
   <dipole>
    <v name="dipole">      0.00000000       0.00000000       0.02031186 </v>
    <i name="Tr[quadrupol]">  -6834.00681341 </i>
    <i name="Echarged">      0.00000000 </i>
    <i name="Edipol_quadrupol">      0.00000000 </i>
    <i name="Eion">      0.00000000 </i>
   </dipole>
   <energy>
    <i name="e_fr_energy">   -497.31991424 </i>
    <i name="e_wo_entrp">   -497.33147044 </i>
    <i name="e_0_energy">   -497.32376631 </i>
   </energy>
  </scstep>
  <scstep>
   <time name="dav">  181.16   26.05</time>
   <time name="total">  208.18   32.67</time>
   <dipole>
    <v name="dipole">      0.00000000       0.00000000       0.04096074 </v>
    <i name="Tr[quadrupol]">  -6834.07902411 </i>
    <i name="Echarged">      0.00000000 </i>
    <i name="Edipol_quadrupol">      0.00000000 </i>
    <i name="Eion">      0.00000000 </i>
   </dipole>
   <energy>
    <i name="e_fr_energy">   -498.25153680 </i>
    <i name="e_wo_entrp">   -498.28754780 </i>
    <i name="e_0_energy">   -498.26354046 </i>
   </energy>
  </scstep>
  <scstep>
   <time name="dav">  179.51   25.79</time>
   <time name="total">  206.75   32.53</time>
   <dipole>
    <v name="dipole">      0.00000000       0.00000000       0.04785021 </v>
    <i name="Tr[quadrupol]">  -6833.44030316 </i>
    <i name="Echarged">      0.00000000 </i>
    <i name="Edipol_quadrupol">      0.00000000 </i>
    <i name="Eion">      0.00000000 </i>
   </dipole>
   <energy>
    <i name="e_fr_energy">   -498.56857322 </i>
    <i name="e_wo_entrp">   -498.61153402 </i>
    <i name="e_0_energy">   -498.58289349 </i>
   </energy>
  </scstep>
  <scstep>
   <time name="dav">  180.97   26.13</time>
   <time name="total">  208.05   32.76</time>
   <dipole>
    <v name="dipole">      0.00000000       0.00000000       0.02631803 </v>
    <i name="Tr[quadrupol]">  -6833.25413549 </i>
    <i name="Echarged">      0.00000000 </i>
    <i name="Edipol_quadrupol">      0.00000000 </i>
    <i name="Eion">      0.00000000 </i>
   </dipole>
   <energy>
    <i name="e_fr_energy">   -498.84096679 </i>
    <i name="e_wo_entrp">   -498.88741719 </i>
    <i name="e_0_energy">   -498.85645026 </i>
   </energy>
  </scstep>
  <scstep>
   <time name="dav">  171.59   24.79</time>
   <time name="total">  198.71   31.46</time>
   <dipole>
    <v name="dipole">      0.00000000       0.00000000       0.01680950 </v>
    <i name="Tr[quadrupol]">  -6833.48038526 </i>
    <i name="Echarged">      0.00000000 </i>
    <i name="Edipol_quadrupol">      0.00000000 </i>
    <i name="Eion">      0.00000000 </i>
   </dipole>
   <energy>
    <i name="e_fr_energy">   -499.07246623 </i>
    <i name="e_wo_entrp">   -499.10953907 </i>
    <i name="e_0_energy">   -499.08482385 </i>
   </energy>
  </scstep>
  <scstep>
   <time name="dav">  176.87   25.36</time>
   <time name="total">  204.10   32.04</time>
   <dipole>
    <v name="dipole">      0.00000000       0.00000000      -0.00350305 </v>
    <i name="Tr[quadrupol]">  -6833.53573436 </i>
    <i name="Echarged">      0.00000000 </i>
    <i name="Edipol_quadrupol">      0.00000000 </i>
    <i name="Eion">      0.00000000 </i>
   </dipole>
   <energy>
    <i name="e_fr_energy">   -499.23438009 </i>
    <i name="e_wo_entrp">   -499.26000927 </i>
    <i name="e_0_energy">   -499.24292315 </i>
   </energy>
  </scstep>
  <scstep>
   <time name="dav">  179.05   25.73</time>
   <time name="total">  206.46   32.49</time>
   <dipole>
    <v name="dipole">      0.00000000       0.00000000       0.02480055 </v>
    <i name="Tr[quadrupol]">  -6833.47815140 </i>
    <i name="Echarged">      0.00000000 </i>
    <i name="Edipol_quadrupol">      0.00000000 </i>
    <i name="Eion">      0.00000000 </i>
   </dipole>
   <energy>
    <i name="e_fr_energy">   -499.44622505 </i>
    <i name="e_wo_entrp">   -499.46971671 </i>
    <i name="e_0_energy">   -499.45405560 </i>
   </energy>
  </scstep>
  <scstep>
   <time name="dav">  177.94   25.57</time>
   <time name="total">  204.66   32.28</time>
   <dipole>
    <v name="dipole">      0.00000000       0.00000000       0.04101456 </v>
    <i name="Tr[quadrupol]">  -6833.29332833 </i>
    <i name="Echarged">      0.00000000 </i>
    <i name="Edipol_quadrupol">      0.00000000 </i>
    <i name="Eion">      0.00000000 </i>
   </dipole>
   <energy>
    <i name="e_fr_energy">   -499.62727208 </i>
    <i name="e_wo_entrp">   -499.64536577 </i>
    <i name="e_0_energy">   -499.63330331 </i>
   </energy>
  </scstep>
  <scstep>
   <time name="dav">  162.67   23.41</time>
   <time name="total">  189.93   30.18</time>
   <dipole>
    <v name="dipole">      0.00000000       0.00000000       0.05005450 </v>
    <i name="Tr[quadrupol]">  -6833.14013060 </i>
    <i name="Echarged">      0.00000000 </i>
    <i name="Edipol_quadrupol">      0.00000000 </i>
    <i name="Eion">      0.00000000 </i>
   </dipole>
   <energy>
    <i name="e_fr_energy">   -499.63437037 </i>
    <i name="e_wo_entrp">   -499.65455718 </i>
    <i name="e_0_energy">   -499.64109931 </i>
   </energy>
  </scstep>
  <scstep>
   <time name="dav">  178.81   25.72</time>
   <time name="total">  207.47   32.69</time>
   <dipole>
    <v name="dipole">      0.00000000       0.00000000       0.04796947 </v>
    <i name="Tr[quadrupol]">  -6833.13223559 </i>
    <i name="Echarged">      0.00000000 </i>
    <i name="Edipol_quadrupol">      0.00000000 </i>
    <i name="Eion">      0.00000000 </i>
   </dipole>
   <energy>
    <i name="e_fr_energy">   -499.68003298 </i>
    <i name="e_wo_entrp">   -499.70225267 </i>
    <i name="e_0_energy">   -499.68743955 </i>
   </energy>
  </scstep>
  <scstep>
   <time name="dav">  176.89   25.45</time>
   <time name="total">  204.85   32.27</time>
   <dipole>
    <v name="dipole">      0.00000000       0.00000000       0.04436890 </v>
    <i name="Tr[quadrupol]">  -6832.97944405 </i>
    <i name="Echarged">      0.00000000 </i>
    <i name="Edipol_quadrupol">      0.00000000 </i>
    <i name="Eion">      0.00000000 </i>
   </dipole>
   <energy>
    <i name="e_fr_energy">   -499.73787525 </i>
    <i name="e_wo_entrp">   -499.75943565 </i>
    <i name="e_0_energy">   -499.74506205 </i>
   </energy>
  </scstep>
  <scstep>
   <time name="dav">  169.38   24.36</time>
   <time name="total">  196.98   31.10</time>
   <dipole>
    <v name="dipole">      0.00000000       0.00000000       0.05160688 </v>
    <i name="Tr[quadrupol]">  -6833.05427558 </i>
    <i name="Echarged">      0.00000000 </i>
    <i name="Edipol_quadrupol">      0.00000000 </i>
    <i name="Eion">      0.00000000 </i>
   </dipole>
   <energy>
    <i name="e_fr_energy">   -499.74807050 </i>
    <i name="e_wo_entrp">   -499.76983500 </i>
    <i name="e_0_energy">   -499.75532533 </i>
   </energy>
  </scstep>
  <scstep>
   <time name="dav">  166.44   23.92</time>
   <time name="total">  193.45   30.63</time>
   <dipole>
    <v name="dipole">      0.00000000       0.00000000       0.04793514 </v>
    <i name="Tr[quadrupol]">  -6833.09437414 </i>
    <i name="Echarged">      0.00000000 </i>
    <i name="Edipol_quadrupol">      0.00000000 </i>
    <i name="Eion">      0.00000000 </i>
   </dipole>
   <energy>
    <i name="e_fr_energy">   -499.75217179 </i>
    <i name="e_wo_entrp">   -499.77444267 </i>
    <i name="e_0_energy">   -499.75959542 </i>
   </energy>
  </scstep>
  <scstep>
   <time name="dav">  177.90   25.57</time>
   <time name="total">  205.63   32.37</time>
   <dipole>
    <v name="dipole">      0.00000000       0.00000000       0.04388341 </v>
    <i name="Tr[quadrupol]">  -6833.08484206 </i>
    <i name="Echarged">      0.00000000 </i>
    <i name="Edipol_quadrupol">      0.00000000 </i>
    <i name="Eion">      0.00000000 </i>
   </dipole>
   <energy>
    <i name="e_fr_energy">   -499.76175361 </i>
    <i name="e_wo_entrp">   -499.78467439 </i>
    <i name="e_0_energy">   -499.76939387 </i>
   </energy>
  </scstep>
  <scstep>
   <time name="dav">  172.85   24.91</time>
   <time name="total">  200.57   31.71</time>
   <dipole>
    <v name="dipole">      0.00000000       0.00000000       0.04902643 </v>
    <i name="Tr[quadrupol]">  -6833.10607739 </i>
    <i name="Echarged">      0.00000000 </i>
    <i name="Edipol_quadrupol">      0.00000000 </i>
    <i name="Eion">      0.00000000 </i>
   </dipole>
   <energy>
    <i name="e_fr_energy">   -499.77434354 </i>
    <i name="e_wo_entrp">   -499.79790413 </i>
    <i name="e_0_energy">   -499.78219707 </i>
   </energy>
  </scstep>
  <scstep>
   <time name="dav">  175.16   25.25</time>
   <time name="total">  201.99   32.04</time>
   <dipole>
    <v name="dipole">      0.00000000       0.00000000       0.04142218 </v>
    <i name="Tr[quadrupol]">  -6833.07043278 </i>
    <i name="Echarged">      0.00000000 </i>
    <i name="Edipol_quadrupol">      0.00000000 </i>
    <i name="Eion">      0.00000000 </i>
   </dipole>
   <energy>
    <i name="e_fr_energy">   -499.77434712 </i>
    <i name="e_wo_entrp">   -499.79646915 </i>
    <i name="e_0_energy">   -499.78172113 </i>
   </energy>
  </scstep>
  <scstep>
   <time name="dav">  171.47   24.74</time>
   <time name="total">  199.25   31.56</time>
   <dipole>
    <v name="dipole">      0.00000000       0.00000000       0.03997317 </v>
    <i name="Tr[quadrupol]">  -6833.04072280 </i>
    <i name="Echarged">      0.00000000 </i>
    <i name="Edipol_quadrupol">      0.00000000 </i>
    <i name="Eion">      0.00000000 </i>
   </dipole>
   <energy>
    <i name="e_fr_energy">   -499.77509686 </i>
    <i name="e_wo_entrp">   -499.79659697 </i>
    <i name="e_0_energy">   -499.78226356 </i>
   </energy>
  </scstep>
  <scstep>
   <time name="dav">  170.44   24.53</time>
   <time name="total">  198.49   31.48</time>
   <dipole>
    <v name="dipole">      0.00000000       0.00000000       0.03705668 </v>
    <i name="Tr[quadrupol]">  -6833.01679844 </i>
    <i name="Echarged">      0.00000000 </i>
    <i name="Edipol_quadrupol">      0.00000000 </i>
    <i name="Eion">      0.00000000 </i>
   </dipole>
   <energy>
    <i name="e_fr_energy">   -499.77802070 </i>
    <i name="e_wo_entrp">   -499.79867345 </i>
    <i name="e_0_energy">   -499.78490495 </i>
   </energy>
  </scstep>
  <scstep>
   <time name="dav">  178.83   25.70</time>
   <time name="total">  206.52   32.55</time>
   <dipole>
    <v name="dipole">      0.00000000       0.00000000       0.03539693 </v>
    <i name="Tr[quadrupol]">  -6832.99798332 </i>
    <i name="Echarged">      0.00000000 </i>
    <i name="Edipol_quadrupol">      0.00000000 </i>
    <i name="Eion">      0.00000000 </i>
   </dipole>
   <energy>
    <i name="e_fr_energy">   -499.78014222 </i>
    <i name="e_wo_entrp">   -499.80042115 </i>
    <i name="e_0_energy">   -499.78690186 </i>
   </energy>
  </scstep>
  <scstep>
   <time name="dav">  179.41   25.78</time>
   <time name="total">  207.19   32.71</time>
   <dipole>
    <v name="dipole">      0.00000000       0.00000000       0.03768007 </v>
    <i name="Tr[quadrupol]">  -6832.97682699 </i>
    <i name="Echarged">      0.00000000 </i>
    <i name="Edipol_quadrupol">      0.00000000 </i>
    <i name="Eion">      0.00000000 </i>
   </dipole>
   <energy>
    <i name="e_fr_energy">   -499.78046078 </i>
    <i name="e_wo_entrp">   -499.80081967 </i>
    <i name="e_0_energy">   -499.78724708 </i>
   </energy>
  </scstep>
  <scstep>
   <time name="dav">  167.04   24.05</time>
   <time name="total">  194.94   30.92</time>
   <dipole>
    <v name="dipole">      0.00000000       0.00000000       0.03847230 </v>
    <i name="Tr[quadrupol]">  -6832.99429290 </i>
    <i name="Echarged">      0.00000000 </i>
    <i name="Edipol_quadrupol">      0.00000000 </i>
    <i name="Eion">      0.00000000 </i>
   </dipole>
   <energy>
    <i name="e_fr_energy">   -499.78069692 </i>
    <i name="e_wo_entrp">   -499.80112537 </i>
    <i name="e_0_energy">   -499.78750641 </i>
   </energy>
  </scstep>
  <scstep>
   <time name="dav">  173.08   24.98</time>
   <time name="total">  200.90   31.90</time>
   <dipole>
    <v name="dipole">      0.00000000       0.00000000       0.03973936 </v>
    <i name="Tr[quadrupol]">  -6833.01968103 </i>
    <i name="Echarged">      0.00000000 </i>
    <i name="Edipol_quadrupol">      0.00000000 </i>
    <i name="Eion">      0.00000000 </i>
   </dipole>
   <energy>
    <i name="e_fr_energy">   -499.78051132 </i>
    <i name="e_wo_entrp">   -499.80145079 </i>
    <i name="e_0_energy">   -499.78749115 </i>
   </energy>
  </scstep>
  <scstep>
   <time name="dav">  178.71   25.73</time>
   <time name="total">  206.68   32.64</time>
   <dipole>
    <v name="dipole">      0.00000000       0.00000000       0.03884158 </v>
    <i name="Tr[quadrupol]">  -6833.04573626 </i>
    <i name="Echarged">      0.00000000 </i>
    <i name="Edipol_quadrupol">      0.00000000 </i>
    <i name="Eion">      0.00000000 </i>
   </dipole>
   <energy>
    <i name="e_fr_energy">   -499.78076619 </i>
    <i name="e_wo_entrp">   -499.80201232 </i>
    <i name="e_0_energy">   -499.78784823 </i>
   </energy>
  </scstep>
  <scstep>
   <time name="dav">  172.76   24.82</time>
   <time name="total">  200.82   31.74</time>
   <dipole>
    <v name="dipole">      0.00000000       0.00000000       0.03982500 </v>
    <i name="Tr[quadrupol]">  -6833.03631555 </i>
    <i name="Echarged">      0.00000000 </i>
    <i name="Edipol_quadrupol">      0.00000000 </i>
    <i name="Eion">      0.00000000 </i>
   </dipole>
   <energy>
    <i name="e_fr_energy">   -499.78095829 </i>
    <i name="e_wo_entrp">   -499.80252770 </i>
    <i name="e_0_energy">   -499.78814809 </i>
   </energy>
  </scstep>
  <scstep>
   <time name="dav">  162.49   23.41</time>
   <time name="total">  190.57   30.36</time>
   <dipole>
    <v name="dipole">      0.00000000       0.00000000       0.03984646 </v>
    <i name="Tr[quadrupol]">  -6833.03327842 </i>
    <i name="Echarged">      0.00000000 </i>
    <i name="Edipol_quadrupol">      0.00000000 </i>
    <i name="Eion">      0.00000000 </i>
   </dipole>
   <energy>
    <i name="e_fr_energy">   -499.78102417 </i>
    <i name="e_wo_entrp">   -499.80258129 </i>
    <i name="e_0_energy">   -499.78820988 </i>
   </energy>
  </scstep>
  <scstep>
   <time name="dav">  121.49   19.41</time>
   <time name="total">  143.64   25.09</time>
   <dipole>
    <v name="dipole">      0.00000000       0.00000000       0.03977050 </v>
    <i name="Tr[quadrupol]">  -6833.02983304 </i>
    <i name="Echarged">      0.00000000 </i>
    <i name="Edipol_quadrupol">      0.00000000 </i>
    <i name="Eion">      0.00000000 </i>
   </dipole>
   <energy>
    <i name="alphaZ">   1718.76493936 </i>
    <i name="ewald"> 208922.90386005 </i>
    <i name="hartreedc">-257437.35576902 </i>
    <i name="XCdc">    911.97447236 </i>
    <i name="pawpsdc">  53065.01503049 </i>
    <i name="pawaedc"> -54161.46413161 </i>
    <i name="eentropy">      0.02151711 </i>
    <i name="bandstr">  -4063.70638493 </i>
    <i name="atom">  50544.06543380 </i>
    <i name="e_fr_energy">   -499.78103238 </i>
    <i name="e_wo_entrp">   -499.80254950 </i>
    <i name="e_0_energy">   -499.78820476 </i>
   </energy>
  </scstep>
  <structure>
   <crystal>
    <varray name="basis" >
     <v>       8.53269958       0.00000000       0.00000000 </v>
     <v>      -0.00051933       8.49699972       0.00000000 </v>
     <v>       0.00000000       0.00000000      23.59499931 </v>
    </varray>
    <i name="volume">   1710.69280467 </i>
    <varray name="rec_basis" >
     <v>       0.11719620       0.00000716       0.00000000 </v>
     <v>       0.00000000       0.11768860       0.00000000 </v>
     <v>       0.00000000       0.00000000       0.04238186 </v>
    </varray>
   </crystal>
   <varray name="positions" >
    <v>       0.00086000       0.99993000       0.24271000 </v>
    <v>       0.16582510       0.16687191       0.30359811 </v>
    <v>       0.50119068       0.16882397       0.30317387 </v>
    <v>       0.66822000       0.00107000       0.24272000 </v>
    <v>       0.83475755       0.16959563       0.30326156 </v>
    <v>       0.00044000       0.33497000       0.24240000 </v>
    <v>       0.16549445       0.49995658       0.30347876 </v>
    <v>       0.33469000       0.33305000       0.24267000 </v>
    <v>       0.50233275       0.49954053       0.30278627 </v>
    <v>       0.83323483       0.50163357       0.30325824 </v>
    <v>       0.16762456       0.83354547       0.30434707 </v>
    <v>       0.33342000       0.66555000       0.24261000 </v>
    <v>       0.83612142       0.83116009       0.30362450 </v>
    <v>       0.00064000       0.00119000       0.00199000 </v>
    <v>       0.00042755       0.00004460       0.36118614 </v>
    <v>       0.16843000       0.16962000       0.06269000 </v>
    <v>       0.33460000       0.00297000       0.00254000 </v>
    <v>       0.33356295       0.00173459       0.36153765 </v>
    <v>       0.50463000       0.16850000       0.06120000 </v>
    <v>       0.83272000       0.16670000       0.06193000 </v>
    <v>       0.00004000       0.33467000       0.00213000 </v>
    <v>       0.00151203       0.33453016       0.36078237 </v>
    <v>       0.16757000       0.49895000       0.06268000 </v>
    <v>       0.50099000       0.49896000       0.06206000 </v>
    <v>       0.83393000       0.50234000       0.06235000 </v>
    <v>       0.00121000       0.66785000       0.00188000 </v>
    <v>       0.00036228       0.66655132       0.36076412 </v>
    <v>       0.16792000       0.83462000       0.06228000 </v>
    <v>       0.33437000       0.66664000       0.00225000 </v>
    <v>       0.33525215       0.66497282       0.36186884 </v>
    <v>       0.50152000       0.83563000       0.06217000 </v>
    <v>       0.66753000       0.66705000       0.00175000 </v>
    <v>       0.66698635       0.66632422       0.36035327 </v>
    <v>       0.83293000       0.83584000       0.06235000 </v>
    <v>       0.00121000       0.00098000       0.12225000 </v>
    <v>       0.16700000       0.16811000       0.18239000 </v>
    <v>       0.33470000       0.00227000       0.12192000 </v>
    <v>       0.50174000       0.16716000       0.18263000 </v>
    <v>       0.83421000       0.16639000       0.18283000 </v>
    <v>       0.16964000       0.49868000       0.18209000 </v>
    <v>       0.50219000       0.50081000       0.18317000 </v>
    <v>       0.66741000       0.33395000       0.12233000 </v>
    <v>       0.83134000       0.50253000       0.18283000 </v>
    <v>       0.00132000       0.66795000       0.12253000 </v>
    <v>       0.16898000       0.83509000       0.18243000 </v>
    <v>       0.33446000       0.66703000       0.12223000 </v>
    <v>       0.49971000       0.83538000       0.18278000 </v>
    <v>       0.66698000       0.66840000       0.12259000 </v>
    <v>       0.83488000       0.83403000       0.18294000 </v>
    <v>       0.33558000       0.99863000       0.24353000 </v>
    <v>       0.66801000       0.33262000       0.24229000 </v>
    <v>       0.00448000       0.66739000       0.24217000 </v>
    <v>       0.49742652       0.83103054       0.30347900 </v>
    <v>       0.66521000       0.67351000       0.24327000 </v>
    <v>       0.66620000       0.99680000       0.00000000 </v>
    <v>       0.66592665       0.99562089       0.36085486 </v>
    <v>       0.33213000       0.33386000       0.00135000 </v>
    <v>       0.33174580       0.33640327       0.36230882 </v>
    <v>       0.67040000       0.33673000       0.00321000 </v>
    <v>       0.66728000       0.99998000       0.12246000 </v>
    <v>       0.99806000       0.33495000       0.12235000 </v>
    <v>       0.33675000       0.33238000       0.12261000 </v>
   </varray>
  </structure>
  <varray name="forces" >
   <v>       0.00229219      -0.00780917      -0.12586514 </v>
   <v>      -0.07103572      -0.12506398       0.02470572 </v>
   <v>       0.17202952      -0.01845529       0.15527040 </v>
   <v>       0.03195865       0.00371145      -0.09185135 </v>
   <v>      -0.05400156       0.11456410       0.09466233 </v>
   <v>       0.00102741       0.02071346      -0.18515734 </v>
   <v>      -0.00121557       0.11155327       0.10010060 </v>
   <v>      -0.02766107      -0.00694763      -0.21674614 </v>
   <v>       0.17018780      -0.09187785       0.04682853 </v>
   <v>      -0.16957571      -0.18510666      -0.17102357 </v>
   <v>       0.08210837       0.04141826      -0.13657253 </v>
   <v>      -0.08585059      -0.06656840      -0.13098633 </v>
   <v>       0.00038833       0.08379705       0.03466994 </v>
   <v>       0.02775777      -0.03398470       0.27736160 </v>
   <v>      -0.11462316       0.12335065      -0.01252085 </v>
   <v>      -0.32710675      -0.28132107       0.00134035 </v>
   <v>      -0.04291498      -0.02287040       0.39550035 </v>
   <v>       0.07409785       0.18476453       0.07546242 </v>
   <v>      -0.21477376      -0.17010973       0.56703030 </v>
   <v>       0.42826060       0.14605863       0.19277422 </v>
   <v>      -0.07783950       0.02581849       0.40479185 </v>
   <v>       0.05892153      -0.08930007      -0.05326159 </v>
   <v>      -0.27083757       0.30458973      -0.00709358 </v>
   <v>       0.10373280       0.48767714       0.19905963 </v>
   <v>       0.14220852       0.12798783      -0.09865045 </v>
   <v>       0.04748786       0.01364998       0.14247523 </v>
   <v>      -0.04620096      -0.05868850       0.01422568 </v>
   <v>      -0.02488780       0.00274149      -0.41452544 </v>
   <v>      -0.08963661       0.01820594       0.27183285 </v>
   <v>       0.02014394      -0.11340571      -0.02161422 </v>
   <v>      -0.28610874      -0.36621321       0.02760187 </v>
   <v>       0.00976322      -0.07777020       0.41569984 </v>
   <v>      -0.06223471       0.04592058       0.12374720 </v>
   <v>       0.35647837      -0.36548759       0.00694315 </v>
   <v>       0.01842381       0.13475948      -0.00533872 </v>
   <v>      -0.00905711       0.00288512       0.07785152 </v>
   <v>       0.06213895       0.05066281       0.06335585 </v>
   <v>      -0.06325399      -0.06466512       0.06537002 </v>
   <v>       0.03358773      -0.02566732       0.07867497 </v>
   <v>      -0.01513354      -0.01837929       0.19248652 </v>
   <v>       0.01966885       0.06291865       0.10006213 </v>
   <v>       0.05301925       0.00466075      -0.01357836 </v>
   <v>       0.02977671       0.07125858       0.10103306 </v>
   <v>      -0.03985341      -0.06710698      -0.05497370 </v>
   <v>       0.02993662       0.05058832       0.02904740 </v>
   <v>       0.12330229      -0.00698613      -0.02752816 </v>
   <v>       0.01635900      -0.01193843       0.08195062 </v>
   <v>      -0.06203457      -0.08049252       0.03144933 </v>
   <v>      -0.01247920      -0.02225941       0.20364407 </v>
   <v>       0.16812904      -0.03428625       0.09708038 </v>
   <v>      -0.01325963      -0.04595670       0.09331789 </v>
   <v>      -0.05171159      -0.11902344      -0.16609760 </v>
   <v>      -0.04843718       0.12295324      -0.43344242 </v>
   <v>      -0.12729214       0.13389180      -0.07563285 </v>
   <v>       0.06873236       0.43056674      -0.79603991 </v>
   <v>       0.03422587       0.02928897       0.06218925 </v>
   <v>       0.33259942       0.01280984      -0.65515829 </v>
   <v>       0.01615491      -0.09558114       0.12624694 </v>
   <v>      -0.30006312      -0.34922369      -0.21833928 </v>
   <v>      -0.08558009       0.17520566      -0.34389925 </v>
   <v>      -0.04909647      -0.03957114      -0.05941214 </v>
   <v>       0.10885728      -0.07685484      -0.46053483 </v>
  </varray>
  <varray name="stress" >
   <v>     -18.04334118       0.38069622       0.16445968 </v>
   <v>       0.38069509     -18.31543923       0.17515911 </v>
   <v>       0.16445917       0.17515907      -2.29588393 </v>
  </varray>
  <energy>
   <i name="e_fr_energy">   -499.78103238 </i>
   <i name="e_wo_entrp">   -499.80254950 </i>
   <i name="e_0_energy">   -499.78820476 </i>
  </energy>
  <time name="totalsc"> 8951.90 1426.18</time>
 </calculation>
 <calculation>
  <scstep>
   <time name="dav">  124.25   17.97</time>
   <time name="total">  149.79   24.60</time>
   <dipole>
    <v name="dipole">      0.00000000       0.00000000       0.03979618 </v>
    <i name="Tr[quadrupol]">  -6831.59990865 </i>
    <i name="Echarged">      0.00000000 </i>
    <i name="Edipol_quadrupol">      0.00000000 </i>
    <i name="Eion">      0.00000000 </i>
   </dipole>
   <energy>
    <i name="alphaZ">   1718.76504904 </i>
    <i name="ewald"> 208913.61808420 </i>
    <i name="hartreedc">-257428.57615553 </i>
    <i name="XCdc">    912.02762041 </i>
    <i name="pawpsdc">  53069.17466876 </i>
    <i name="pawaedc"> -54165.78986981 </i>
    <i name="eentropy">      0.02145986 </i>
    <i name="bandstr">  -4063.00154014 </i>
    <i name="atom">  50544.06543380 </i>
    <i name="e_fr_energy">   -499.69524941 </i>
    <i name="e_wo_entrp">   -499.71670927 </i>
    <i name="e_0_energy">   -499.70240270 </i>
   </energy>
  </scstep>
  <scstep>
   <time name="dav">  135.35   19.53</time>
   <time name="total">  161.77   26.10</time>
   <dipole>
    <v name="dipole">      0.00000000       0.00000000       0.01201636 </v>
    <i name="Tr[quadrupol]">  -6831.66010997 </i>
    <i name="Echarged">      0.00000000 </i>
    <i name="Edipol_quadrupol">      0.00000000 </i>
    <i name="Eion">      0.00000000 </i>
   </dipole>
   <energy>
    <i name="e_fr_energy">   -499.80987970 </i>
    <i name="e_wo_entrp">   -499.82712059 </i>
    <i name="e_0_energy">   -499.81562666 </i>
   </energy>
  </scstep>
  <scstep>
   <time name="dav">  176.11   25.31</time>
   <time name="total">  202.63   31.93</time>
   <dipole>
    <v name="dipole">      0.00000000       0.00000000       0.07686191 </v>
    <i name="Tr[quadrupol]">  -6831.71101432 </i>
    <i name="Echarged">      0.00000000 </i>
    <i name="Edipol_quadrupol">      0.00000000 </i>
    <i name="Eion">      0.00000000 </i>
   </dipole>
   <energy>
    <i name="e_fr_energy">   -499.84369530 </i>
    <i name="e_wo_entrp">   -499.87327059 </i>
    <i name="e_0_energy">   -499.85355373 </i>
   </energy>
  </scstep>
  <scstep>
   <time name="dav">  177.91   25.59</time>
   <time name="total">  204.49   32.19</time>
   <dipole>
    <v name="dipole">      0.00000000       0.00000000       0.03714895 </v>
    <i name="Tr[quadrupol]">  -6831.59961131 </i>
    <i name="Echarged">      0.00000000 </i>
    <i name="Edipol_quadrupol">      0.00000000 </i>
    <i name="Eion">      0.00000000 </i>
   </dipole>
   <energy>
    <i name="e_fr_energy">   -499.79703270 </i>
    <i name="e_wo_entrp">   -499.81759166 </i>
    <i name="e_0_energy">   -499.80388569 </i>
   </energy>
  </scstep>
  <scstep>
   <time name="dav">  156.45   22.46</time>
   <time name="total">  182.98   29.07</time>
   <dipole>
    <v name="dipole">      0.00000000       0.00000000       0.03634612 </v>
    <i name="Tr[quadrupol]">  -6831.68693653 </i>
    <i name="Echarged">      0.00000000 </i>
    <i name="Edipol_quadrupol">      0.00000000 </i>
    <i name="Eion">      0.00000000 </i>
   </dipole>
   <energy>
    <i name="e_fr_energy">   -499.80098711 </i>
    <i name="e_wo_entrp">   -499.82163063 </i>
    <i name="e_0_energy">   -499.80786829 </i>
   </energy>
  </scstep>
  <scstep>
   <time name="dav">  160.74   23.41</time>
   <time name="total">  187.27   30.02</time>
   <dipole>
    <v name="dipole">      0.00000000       0.00000000       0.04454030 </v>
    <i name="Tr[quadrupol]">  -6831.64900108 </i>
    <i name="Echarged">      0.00000000 </i>
    <i name="Edipol_quadrupol">      0.00000000 </i>
    <i name="Eion">      0.00000000 </i>
   </dipole>
   <energy>
    <i name="e_fr_energy">   -499.80670326 </i>
    <i name="e_wo_entrp">   -499.82862592 </i>
    <i name="e_0_energy">   -499.81401081 </i>
   </energy>
  </scstep>
  <scstep>
   <time name="dav">  163.62   23.57</time>
   <time name="total">  190.15   30.16</time>
   <dipole>
    <v name="dipole">      0.00000000       0.00000000       0.04070051 </v>
    <i name="Tr[quadrupol]">  -6831.65227268 </i>
    <i name="Echarged">      0.00000000 </i>
    <i name="Edipol_quadrupol">      0.00000000 </i>
    <i name="Eion">      0.00000000 </i>
   </dipole>
   <energy>
    <i name="e_fr_energy">   -499.80620187 </i>
    <i name="e_wo_entrp">   -499.82727511 </i>
    <i name="e_0_energy">   -499.81322628 </i>
   </energy>
  </scstep>
  <scstep>
   <time name="dav">  159.34   22.97</time>
   <time name="total">  185.81   29.59</time>
   <dipole>
    <v name="dipole">      0.00000000       0.00000000       0.03949484 </v>
    <i name="Tr[quadrupol]">  -6831.64620338 </i>
    <i name="Echarged">      0.00000000 </i>
    <i name="Edipol_quadrupol">      0.00000000 </i>
    <i name="Eion">      0.00000000 </i>
   </dipole>
   <energy>
    <i name="e_fr_energy">   -499.80616066 </i>
    <i name="e_wo_entrp">   -499.82696845 </i>
    <i name="e_0_energy">   -499.81309659 </i>
   </energy>
  </scstep>
  <scstep>
   <time name="dav">  133.82   19.25</time>
   <time name="total">  160.74   25.99</time>
   <dipole>
    <v name="dipole">      0.00000000       0.00000000       0.03915914 </v>
    <i name="Tr[quadrupol]">  -6831.64282054 </i>
    <i name="Echarged">      0.00000000 </i>
    <i name="Edipol_quadrupol">      0.00000000 </i>
    <i name="Eion">      0.00000000 </i>
   </dipole>
   <energy>
    <i name="e_fr_energy">   -499.80614747 </i>
    <i name="e_wo_entrp">   -499.82690916 </i>
    <i name="e_0_energy">   -499.81306803 </i>
   </energy>
  </scstep>
  <scstep>
   <time name="dav">  159.65   22.96</time>
   <time name="total">  186.11   29.59</time>
   <dipole>
    <v name="dipole">      0.00000000       0.00000000       0.03914261 </v>
    <i name="Tr[quadrupol]">  -6831.63857921 </i>
    <i name="Echarged">      0.00000000 </i>
    <i name="Edipol_quadrupol">      0.00000000 </i>
    <i name="Eion">      0.00000000 </i>
   </dipole>
   <energy>
    <i name="e_fr_energy">   -499.80614195 </i>
    <i name="e_wo_entrp">   -499.82689082 </i>
    <i name="e_0_energy">   -499.81305824 </i>
   </energy>
  </scstep>
  <scstep>
   <time name="dav">  156.13   22.89</time>
   <time name="total">  182.05   29.53</time>
   <dipole>
    <v name="dipole">      0.00000000       0.00000000       0.03903834 </v>
    <i name="Tr[quadrupol]">  -6831.63064776 </i>
    <i name="Echarged">      0.00000000 </i>
    <i name="Edipol_quadrupol">      0.00000000 </i>
    <i name="Eion">      0.00000000 </i>
   </dipole>
   <energy>
    <i name="e_fr_energy">   -499.80618159 </i>
    <i name="e_wo_entrp">   -499.82694270 </i>
    <i name="e_0_energy">   -499.81310196 </i>
   </energy>
  </scstep>
  <scstep>
   <time name="dav">   71.87   13.61</time>
   <time name="total">   98.74   20.27</time>
   <dipole>
    <v name="dipole">      0.00000000       0.00000000       0.03893098 </v>
    <i name="Tr[quadrupol]">  -6831.62560139 </i>
    <i name="Echarged">      0.00000000 </i>
    <i name="Edipol_quadrupol">      0.00000000 </i>
    <i name="Eion">      0.00000000 </i>
   </dipole>
   <energy>
    <i name="e_fr_energy">   -499.80619550 </i>
    <i name="e_wo_entrp">   -499.82692107 </i>
    <i name="e_0_energy">   -499.81310402 </i>
   </energy>
  </scstep>
  <scstep>
   <time name="dav">   72.93   14.14</time>
   <time name="total">   99.93   20.83</time>
   <dipole>
    <v name="dipole">      0.00000000       0.00000000       0.03939946 </v>
    <i name="Tr[quadrupol]">  -6831.62575182 </i>
    <i name="Echarged">      0.00000000 </i>
    <i name="Edipol_quadrupol">      0.00000000 </i>
    <i name="Eion">      0.00000000 </i>
   </dipole>
   <energy>
    <i name="e_fr_energy">   -499.80624011 </i>
    <i name="e_wo_entrp">   -499.82700981 </i>
    <i name="e_0_energy">   -499.81316335 </i>
   </energy>
  </scstep>
  <scstep>
   <time name="dav">   92.20   14.36</time>
   <time name="total">  118.45   21.07</time>
   <dipole>
    <v name="dipole">      0.00000000       0.00000000       0.03960060 </v>
    <i name="Tr[quadrupol]">  -6831.61356685 </i>
    <i name="Echarged">      0.00000000 </i>
    <i name="Edipol_quadrupol">      0.00000000 </i>
    <i name="Eion">      0.00000000 </i>
   </dipole>
   <energy>
    <i name="e_fr_energy">   -499.80626300 </i>
    <i name="e_wo_entrp">   -499.82703842 </i>
    <i name="e_0_energy">   -499.81318814 </i>
   </energy>
  </scstep>
  <scstep>
   <time name="dav">   32.29   11.21</time>
   <time name="total">   54.56   16.94</time>
   <dipole>
    <v name="dipole">      0.00000000       0.00000000       0.03945495 </v>
    <i name="Tr[quadrupol]">  -6831.60835160 </i>
    <i name="Echarged">      0.00000000 </i>
    <i name="Edipol_quadrupol">      0.00000000 </i>
    <i name="Eion">      0.00000000 </i>
   </dipole>
   <energy>
    <i name="alphaZ">   1719.24740835 </i>
    <i name="ewald"> 208913.61808420 </i>
    <i name="hartreedc">-257428.44358150 </i>
    <i name="XCdc">    912.07204922 </i>
    <i name="pawpsdc">  53059.04962580 </i>
    <i name="pawaedc"> -54155.65854661 </i>
    <i name="eentropy">      0.02075319 </i>
    <i name="bandstr">  -4063.77749233 </i>
    <i name="atom">  50544.06543380 </i>
    <i name="e_fr_energy">   -499.80626590 </i>
    <i name="e_wo_entrp">   -499.82701908 </i>
    <i name="e_0_energy">   -499.81318363 </i>
   </energy>
  </scstep>
  <structure>
   <crystal>
    <varray name="basis" >
     <v>       8.53269958       0.00000000       0.00000000 </v>
     <v>      -0.00051933       8.49699972       0.00000000 </v>
     <v>       0.00000000       0.00000000      23.59499931 </v>
    </varray>
    <i name="volume">   1710.69280467 </i>
    <varray name="rec_basis" >
     <v>       0.11719620       0.00000716       0.00000000 </v>
     <v>       0.00000000       0.11768860       0.00000000 </v>
     <v>       0.00000000       0.00000000       0.04238186 </v>
    </varray>
   </crystal>
   <varray name="positions" >
[...]
       <r>   -39.5737     1.2000    39.0348 </r>
       <r>   -39.4035    -0.2003    39.0007 </r>
       <r>   -39.2332    -0.0042    39.0000 </r>
       <r>   -39.0629    -0.0000    39.0000 </r>
       <r>   -38.8926    -0.0000    39.0000 </r>
       <r>   -38.7224    -0.0000    39.0000 </r>
       <r>   -38.5521     0.0000    39.0000 </r>
       <r>   -38.3818     0.0000    39.0000 </r>
       <r>   -38.2115     0.0000    39.0000 </r>
       <r>   -38.0413     0.0000    39.0000 </r>
       <r>   -37.8710     0.0000    39.0000 </r>
       <r>   -37.7007     0.0000    39.0000 </r>
       <r>   -37.5304     0.0000    39.0000 </r>
       <r>   -37.3602     0.0000    39.0000 </r>
       <r>   -37.1899     0.0000    39.0000 </r>
       <r>   -37.0196     0.0000    39.0000 </r>
       <r>   -36.8493     0.0000    39.0000 </r>
       <r>   -36.6790     0.0000    39.0000 </r>
       <r>   -36.5088     0.0000    39.0000 </r>
       <r>   -36.3385     0.0000    39.0000 </r>
       <r>   -36.1682     0.0000    39.0000 </r>
       <r>   -35.9979     0.0000    39.0000 </r>
       <r>   -35.8277     0.0000    39.0000 </r>
       <r>   -35.6574     0.0000    39.0000 </r>
       <r>   -35.4871     0.0000    39.0000 </r>
       <r>   -35.3168     0.0000    39.0000 </r>
       <r>   -35.1466     0.0000    39.0000 </r>
       <r>   -34.9763     0.0000    39.0000 </r>
       <r>   -34.8060     0.0000    39.0000 </r>
       <r>   -34.6357     0.0000    39.0000 </r>
       <r>   -34.4655     0.0000    39.0000 </r>
       <r>   -34.2952     0.0000    39.0000 </r>
       <r>   -34.1249     0.0000    39.0000 </r>
       <r>   -33.9546     0.0000    39.0000 </r>
       <r>   -33.7844     0.0000    39.0000 </r>
       <r>   -33.6141     0.0000    39.0000 </r>
       <r>   -33.4438     0.0000    39.0000 </r>
       <r>   -33.2735     0.0000    39.0000 </r>
       <r>   -33.1033     0.0000    39.0000 </r>
       <r>   -32.9330     0.0000    39.0000 </r>
       <r>   -32.7627     0.0000    39.0000 </r>
       <r>   -32.5924     0.0000    39.0000 </r>
       <r>   -32.4222     0.0000    39.0000 </r>
       <r>   -32.2519     0.0000    39.0000 </r>
       <r>   -32.0816     0.0000    39.0000 </r>
       <r>   -31.9113     0.0000    39.0000 </r>
       <r>   -31.7410     0.0000    39.0000 </r>
       <r>   -31.5708     0.0000    39.0000 </r>
       <r>   -31.4005     0.0000    39.0000 </r>
       <r>   -31.2302     0.0000    39.0000 </r>
       <r>   -31.0599     0.0000    39.0000 </r>
       <r>   -30.8897     0.0000    39.0000 </r>
       <r>   -30.7194     0.0000    39.0000 </r>
       <r>   -30.5491     0.0000    39.0000 </r>
       <r>   -30.3788     0.0000    39.0000 </r>
       <r>   -30.2086     0.0000    39.0000 </r>
       <r>   -30.0383     0.0000    39.0000 </r>
       <r>   -29.8680     0.0000    39.0000 </r>
       <r>   -29.6977     0.0000    39.0000 </r>
       <r>   -29.5275     0.0000    39.0000 </r>
       <r>   -29.3572     0.0000    39.0000 </r>
       <r>   -29.1869     0.0000    39.0000 </r>
       <r>   -29.0166     0.0000    39.0000 </r>
       <r>   -28.8464     0.0000    39.0000 </r>
       <r>   -28.6761     0.0000    39.0000 </r>
       <r>   -28.5058     0.0000    39.0000 </r>
       <r>   -28.3355     0.0000    39.0000 </r>
       <r>   -28.1653     0.0000    39.0000 </r>
       <r>   -27.9950     0.0000    39.0000 </r>
       <r>   -27.8247     0.0000    39.0000 </r>
       <r>   -27.6544     0.0000    39.0000 </r>
       <r>   -27.4841     0.0000    39.0000 </r>
       <r>   -27.3139     0.0000    39.0000 </r>
       <r>   -27.1436     0.0000    39.0000 </r>
       <r>   -26.9733     0.0000    39.0000 </r>
       <r>   -26.8030     0.0000    39.0000 </r>
       <r>   -26.6328     0.0000    39.0000 </r>
       <r>   -26.4625     0.0000    39.0000 </r>
       <r>   -26.2922     0.0000    39.0000 </r>
       <r>   -26.1219     0.0000    39.0000 </r>
       <r>   -25.9517     0.0000    39.0000 </r>
       <r>   -25.7814     0.0000    39.0000 </r>
       <r>   -25.6111     0.0000    39.0000 </r>
       <r>   -25.4408     0.0000    39.0000 </r>
       <r>   -25.2706     0.0000    39.0000 </r>
       <r>   -25.1003     0.0000    39.0000 </r>
       <r>   -24.9300     0.0000    39.0000 </r>
       <r>   -24.7597     0.0000    39.0000 </r>
       <r>   -24.5895     0.0000    39.0000 </r>
       <r>   -24.4192     0.0000    39.0000 </r>
       <r>   -24.2489     0.0000    39.0000 </r>
       <r>   -24.0786     0.0000    39.0000 </r>
       <r>   -23.9084     0.0000    39.0000 </r>
       <r>   -23.7381     0.0000    39.0000 </r>
       <r>   -23.5678     0.0000    39.0000 </r>
       <r>   -23.3975     0.0000    39.0000 </r>
       <r>   -23.2272     0.0000    39.0000 </r>
       <r>   -23.0570     0.0000    39.0000 </r>
       <r>   -22.8867     0.0000    39.0000 </r>
       <r>   -22.7164     0.0000    39.0000 </r>
       <r>   -22.5461     0.0000    39.0000 </r>
       <r>   -22.3759     0.0000    39.0000 </r>
       <r>   -22.2056     0.0000    39.0000 </r>
       <r>   -22.0353     0.0000    39.0000 </r>
       <r>   -21.8650     0.0000    39.0000 </r>
       <r>   -21.6948     0.0000    39.0000 </r>
       <r>   -21.5245     0.0000    39.0000 </r>
       <r>   -21.3542     0.0000    39.0000 </r>
       <r>   -21.1839     0.0000    39.0000 </r>
       <r>   -21.0137     0.0000    39.0000 </r>
       <r>   -20.8434     0.0000    39.0000 </r>
       <r>   -20.6731     0.0000    39.0000 </r>
       <r>   -20.5028     0.0000    39.0000 </r>
       <r>   -20.3326     0.0000    39.0000 </r>
       <r>   -20.1623     0.0000    39.0000 </r>
       <r>   -19.9920     0.0000    39.0000 </r>
       <r>   -19.8217     0.0000    39.0000 </r>
       <r>   -19.6515     0.0000    39.0000 </r>
       <r>   -19.4812     0.0000    39.0000 </r>
       <r>   -19.3109     0.0000    39.0000 </r>
       <r>   -19.1406     0.0000    39.0000 </r>
       <r>   -18.9703     0.0000    39.0000 </r>
       <r>   -18.8001     0.0000    39.0000 </r>
       <r>   -18.6298     0.0000    39.0000 </r>
       <r>   -18.4595     0.0000    39.0000 </r>
       <r>   -18.2892     0.0000    39.0000 </r>
       <r>   -18.1190     0.0000    39.0000 </r>
       <r>   -17.9487     0.0000    39.0000 </r>
       <r>   -17.7784     0.0000    39.0000 </r>
       <r>   -17.6081     0.0000    39.0000 </r>
       <r>   -17.4379     0.0000    39.0000 </r>
       <r>   -17.2676     0.0000    39.0000 </r>
       <r>   -17.0973     0.0000    39.0000 </r>
       <r>   -16.9270     0.0000    39.0000 </r>
       <r>   -16.7568     0.0000    39.0000 </r>
       <r>   -16.5865     0.0000    39.0000 </r>
       <r>   -16.4162     0.0000    39.0000 </r>
       <r>   -16.2459     0.0000    39.0000 </r>
       <r>   -16.0757     0.0000    39.0000 </r>
       <r>   -15.9054     0.0000    39.0000 </r>
       <r>   -15.7351     0.0000    39.0000 </r>
       <r>   -15.5648     0.0000    39.0000 </r>
       <r>   -15.3946     0.0000    39.0000 </r>
       <r>   -15.2243     0.0000    39.0000 </r>
       <r>   -15.0540     0.0000    39.0000 </r>
       <r>   -14.8837     0.0000    39.0000 </r>
       <r>   -14.7135     0.0000    39.0000 </r>
       <r>   -14.5432     0.0000    39.0000 </r>
       <r>   -14.3729     0.0000    39.0000 </r>
       <r>   -14.2026     0.0000    39.0000 </r>
       <r>   -14.0323     0.0000    39.0000 </r>
       <r>   -13.8621     0.0000    39.0000 </r>
       <r>   -13.6918     0.0000    39.0000 </r>
       <r>   -13.5215     0.0000    39.0000 </r>
       <r>   -13.3512     0.0000    39.0000 </r>
       <r>   -13.1810     0.0000    39.0000 </r>
       <r>   -13.0107     0.0000    39.0000 </r>
       <r>   -12.8404     0.0000    39.0000 </r>
       <r>   -12.6701     0.0000    39.0000 </r>
       <r>   -12.4999     0.0000    39.0000 </r>
       <r>   -12.3296     0.0000    39.0000 </r>
       <r>   -12.1593     0.0000    39.0000 </r>
       <r>   -11.9890     0.0000    39.0000 </r>
       <r>   -11.8188     0.0000    39.0000 </r>
       <r>   -11.6485     0.0000    39.0000 </r>
       <r>   -11.4782     0.0000    39.0000 </r>
       <r>   -11.3079     0.0000    39.0000 </r>
       <r>   -11.1377     0.0000    39.0000 </r>
       <r>   -10.9674     0.0000    39.0000 </r>
       <r>   -10.7971     0.0000    39.0000 </r>
       <r>   -10.6268     0.0000    39.0000 </r>
       <r>   -10.4566     0.0000    39.0000 </r>
       <r>   -10.2863     0.0000    39.0000 </r>
       <r>   -10.1160     0.0000    39.0000 </r>
       <r>    -9.9457     0.0000    39.0000 </r>
       <r>    -9.7754     0.0000    39.0000 </r>
       <r>    -9.6052     0.0000    39.0000 </r>
       <r>    -9.4349     0.0000    39.0000 </r>
       <r>    -9.2646     0.0000    39.0000 </r>
       <r>    -9.0943     0.0000    39.0000 </r>
       <r>    -8.9241     0.0000    39.0000 </r>
       <r>    -8.7538     0.0000    39.0000 </r>
       <r>    -8.5835    -0.0000    39.0000 </r>
       <r>    -8.4132    -0.0000    39.0000 </r>
       <r>    -8.2430    -0.0000    39.0000 </r>
       <r>    -8.0727    -0.0000    39.0000 </r>
       <r>    -7.9024    -0.0000    39.0000 </r>
       <r>    -7.7321    -0.0001    39.0000 </r>
       <r>    -7.5619    -0.0086    38.9985 </r>
       <r>    -7.3916     0.0081    38.9999 </r>
       <r>    -7.2213     0.6390    39.1087 </r>
       <r>    -7.0510     1.7458    39.4060 </r>
       <r>    -6.8808     0.9327    39.5648 </r>
       <r>    -6.7105     1.2877    39.7841 </r>
       <r>    -6.5402     2.7331    40.2494 </r>
       <r>    -6.3699     0.3756    40.3134 </r>
       <r>    -6.1997     1.3762    40.5477 </r>
       <r>    -6.0294     4.0862    41.2435 </r>
       <r>    -5.8591     3.6751    41.8693 </r>
       <r>    -5.6888     2.1684    42.2385 </r>
       <r>    -5.5185     4.2007    42.9538 </r>
       <r>    -5.3483     1.2957    43.1744 </r>
       <r>    -5.1780     3.1251    43.7065 </r>
       <r>    -5.0077     6.2425    44.7695 </r>
       <r>    -4.8374     3.2923    45.3301 </r>
       <r>    -4.6672     5.0796    46.1950 </r>
       <r>    -4.4969     3.4508    46.7826 </r>
       <r>    -4.3266     6.6236    47.9105 </r>
       <r>    -4.1563     8.2947    49.3228 </r>
       <r>    -3.9861     6.2465    50.3865 </r>
       <r>    -3.8158     7.7521    51.7065 </r>
       <r>    -3.6455     6.3119    52.7812 </r>
       <r>    -3.4752    11.8339    54.7962 </r>
       <r>    -3.3050    15.6605    57.4628 </r>
       <r>    -3.1347    18.8553    60.6735 </r>
       <r>    -2.9644    22.4962    64.5040 </r>
       <r>    -2.7941    19.1967    67.7728 </r>
       <r>    -2.6239    21.9616    71.5123 </r>
       <r>    -2.4536    27.7890    76.2441 </r>
       <r>    -2.2833    29.6257    81.2886 </r>
       <r>    -2.1130    33.1360    86.9309 </r>
       <r>    -1.9428    36.4851    93.1434 </r>
       <r>    -1.7725    33.6016    98.8650 </r>
       <r>    -1.6022    40.7635   105.8060 </r>
       <r>    -1.4319    53.3998   114.8987 </r>
       <r>    -1.2616    51.4208   123.6545 </r>
       <r>    -1.0914    49.6755   132.1130 </r>
       <r>    -0.9211    50.6719   140.7412 </r>
       <r>    -0.7508    58.5523   150.7113 </r>
       <r>    -0.5805    64.4112   161.6789 </r>
       <r>    -0.4103    63.9061   172.5606 </r>
       <r>    -0.2400    61.0743   182.9601 </r>
       <r>    -0.0697    48.7892   191.2677 </r>
       <r>     0.1006    38.5995   197.8403 </r>
       <r>     0.2708    32.4744   203.3699 </r>
       <r>     0.4411    29.7715   208.4393 </r>
       <r>     0.6114    29.6406   213.4864 </r>
       <r>     0.7817    35.4572   219.5239 </r>
       <r>     0.9519    44.8749   227.1650 </r>
       <r>     1.1222    52.4235   236.0915 </r>
       <r>     1.2925    53.5983   245.2180 </r>
       <r>     1.4628    63.3480   256.0046 </r>
       <r>     1.6330    71.7796   268.2270 </r>
       <r>     1.8033    69.3525   280.0360 </r>
       <r>     1.9736    82.2655   294.0439 </r>
       <r>     2.1439    92.5812   309.8082 </r>
       <r>     2.3141    96.5099   326.2415 </r>
       <r>     2.4844    89.3715   341.4593 </r>
       <r>     2.6547    64.9108   352.5121 </r>
       <r>     2.8250    35.1776   358.5020 </r>
       <r>     2.9952     3.5274   359.1026 </r>
       <r>     3.1655    -0.5781   359.0042 </r>
       <r>     3.3358    -0.0244   359.0000 </r>
       <r>     3.5061    -0.0001   359.0000 </r>
       <r>     3.6764    -0.0000   359.0000 </r>
       <r>     3.8466    -0.0000   359.0000 </r>
       <r>     4.0169     0.0000   359.0000 </r>
       <r>     4.1872     0.0000   359.0000 </r>
       <r>     4.3575     0.0000   359.0000 </r>
       <r>     4.5277     0.0000   359.0000 </r>
       <r>     4.6980     0.0000   359.0000 </r>
       <r>     4.8683     0.0000   359.0000 </r>
       <r>     5.0386     0.0000   359.0000 </r>
       <r>     5.2088     0.0000   359.0000 </r>
      </set>
     </set>
    </array>
   </total>
  </dos>
 </calculation>
 <structure name="finalpos" >
  <crystal>
   <varray name="basis" >
    <v>       8.53269958       0.00000000       0.00000000 </v>
    <v>      -0.00051933       8.49699972       0.00000000 </v>
    <v>       0.00000000       0.00000000      23.59499931 </v>
   </varray>
   <i name="volume">   1710.69280467 </i>
   <varray name="rec_basis" >
    <v>       0.11719620       0.00000716       0.00000000 </v>
    <v>       0.00000000       0.11768860       0.00000000 </v>
    <v>       0.00000000       0.00000000       0.04238186 </v>
   </varray>
  </crystal>
  <varray name="positions" >
   <v>       0.00086000       0.99993000       0.24271000 </v>
   <v>       0.16615160       0.16511008       0.30347168 </v>
   <v>       0.50665875       0.17101846       0.30449005 </v>
   <v>       0.66822000       0.00107000       0.24272000 </v>
   <v>       0.83369059       0.17159554       0.30349425 </v>
   <v>       0.00044000       0.33497000       0.24240000 </v>
   <v>       0.16637229       0.50100932       0.30416942 </v>
   <v>       0.33469000       0.33305000       0.24267000 </v>
   <v>       0.50417829       0.49833863       0.30292644 </v>
   <v>       0.82946616       0.49883706       0.30295867 </v>
   <v>       0.16855964       0.83458073       0.30469043 </v>
   <v>       0.33342000       0.66555000       0.24261000 </v>
   <v>       0.83582244       0.83262335       0.30368920 </v>
   <v>       0.00064000       0.00119000       0.00199000 </v>
   <v>      -0.00356152       0.00394148       0.36126548 </v>
   <v>       0.16843000       0.16962000       0.06269000 </v>
   <v>       0.33460000       0.00297000       0.00254000 </v>
   <v>       0.33732413       0.00662429       0.36201239 </v>
   <v>       0.50463000       0.16850000       0.06120000 </v>
   <v>       0.83272000       0.16670000       0.06193000 </v>
   <v>       0.00004000       0.33467000       0.00213000 </v>
   <v>       0.00490451       0.33221797       0.36068329 </v>
   <v>       0.16757000       0.49895000       0.06268000 </v>
   <v>       0.50099000       0.49896000       0.06206000 </v>
   <v>       0.83393000       0.50234000       0.06235000 </v>
   <v>       0.00121000       0.66785000       0.00188000 </v>
   <v>      -0.00446080       0.66398904       0.36014185 </v>
   <v>       0.16792000       0.83462000       0.06228000 </v>
   <v>       0.33437000       0.66664000       0.00225000 </v>
   <v>       0.33915947       0.66201745       0.36149755 </v>
   <v>       0.50152000       0.83563000       0.06217000 </v>
   <v>       0.66753000       0.66705000       0.00175000 </v>
   <v>       0.66272101       0.67309315       0.36099833 </v>
   <v>       0.83293000       0.83584000       0.06235000 </v>
   <v>       0.00121000       0.00098000       0.12225000 </v>
   <v>       0.16700000       0.16811000       0.18239000 </v>
   <v>       0.33470000       0.00227000       0.12192000 </v>
   <v>       0.50174000       0.16716000       0.18263000 </v>
   <v>       0.83421000       0.16639000       0.18283000 </v>
   <v>       0.16964000       0.49868000       0.18209000 </v>
   <v>       0.50219000       0.50081000       0.18317000 </v>
   <v>       0.66741000       0.33395000       0.12233000 </v>
   <v>       0.83134000       0.50253000       0.18283000 </v>
   <v>       0.00132000       0.66795000       0.12253000 </v>
   <v>       0.16898000       0.83509000       0.18243000 </v>
   <v>       0.33446000       0.66703000       0.12223000 </v>
   <v>       0.49971000       0.83538000       0.18278000 </v>
   <v>       0.66698000       0.66840000       0.12259000 </v>
   <v>       0.83488000       0.83403000       0.18294000 </v>
   <v>       0.33558000       0.99863000       0.24353000 </v>
   <v>       0.66801000       0.33262000       0.24229000 </v>
   <v>       0.00448000       0.66739000       0.24217000 </v>
   <v>       0.49635414       0.83421436       0.30120319 </v>
   <v>       0.66521000       0.67351000       0.24327000 </v>
   <v>       0.66620000       0.99680000       0.00000000 </v>
   <v>       0.66783682       0.99448462       0.36260661 </v>
   <v>       0.33213000       0.33386000       0.00135000 </v>
   <v>       0.33100801       0.33263928       0.36350500 </v>
   <v>       0.67040000       0.33673000       0.00321000 </v>
   <v>       0.66728000       0.99998000       0.12246000 </v>
   <v>       0.99806000       0.33495000       0.12235000 </v>
   <v>       0.33675000       0.33238000       0.12261000 </v>
  </varray>
  <varray name="selective"  type="logical" >
   <v type="logical" >  F  F  F </v>
   <v type="logical" >  T  T  T </v>
   <v type="logical" >  T  T  T </v>
   <v type="logical" >  F  F  F </v>
   <v type="logical" >  T  T  T </v>
   <v type="logical" >  F  F  F </v>
   <v type="logical" >  T  T  T </v>
   <v type="logical" >  F  F  F </v>
   <v type="logical" >  T  T  T </v>
   <v type="logical" >  T  T  T </v>
   <v type="logical" >  T  T  T </v>
   <v type="logical" >  F  F  F </v>
   <v type="logical" >  T  T  T </v>
   <v type="logical" >  F  F  F </v>
   <v type="logical" >  T  T  T </v>
   <v type="logical" >  F  F  F </v>
   <v type="logical" >  F  F  F </v>
   <v type="logical" >  T  T  T </v>
   <v type="logical" >  F  F  F </v>
   <v type="logical" >  F  F  F </v>
   <v type="logical" >  F  F  F </v>
   <v type="logical" >  T  T  T </v>
   <v type="logical" >  F  F  F </v>
   <v type="logical" >  F  F  F </v>
   <v type="logical" >  F  F  F </v>
   <v type="logical" >  F  F  F </v>
   <v type="logical" >  T  T  T </v>
   <v type="logical" >  F  F  F </v>
   <v type="logical" >  F  F  F </v>
   <v type="logical" >  T  T  T </v>
   <v type="logical" >  F  F  F </v>
   <v type="logical" >  F  F  F </v>
   <v type="logical" >  T  T  T </v>
   <v type="logical" >  F  F  F </v>
   <v type="logical" >  F  F  F </v>
   <v type="logical" >  F  F  F </v>
   <v type="logical" >  F  F  F </v>
   <v type="logical" >  F  F  F </v>
   <v type="logical" >  F  F  F </v>
   <v type="logical" >  F  F  F </v>
   <v type="logical" >  F  F  F </v>
   <v type="logical" >  F  F  F </v>
   <v type="logical" >  F  F  F </v>
   <v type="logical" >  F  F  F </v>
   <v type="logical" >  F  F  F </v>
   <v type="logical" >  F  F  F </v>
   <v type="logical" >  F  F  F </v>
   <v type="logical" >  F  F  F </v>
   <v type="logical" >  F  F  F </v>
   <v type="logical" >  F  F  F </v>
   <v type="logical" >  F  F  F </v>
   <v type="logical" >  F  F  F </v>
   <v type="logical" >  T  T  T </v>
   <v type="logical" >  F  F  F </v>
   <v type="logical" >  F  F  F </v>
   <v type="logical" >  T  T  T </v>
   <v type="logical" >  F  F  F </v>
   <v type="logical" >  T  T  T </v>
   <v type="logical" >  F  F  F </v>
   <v type="logical" >  F  F  F </v>
   <v type="logical" >  F  F  F </v>
   <v type="logical" >  F  F  F </v>
  </varray>
  <nose>
   <v>      -3.00000000       0.00000000       0.00010000       0.00010000 </v>
  </nose>
 </structure>
</modeling>
