ni3al                                   
           1
     8.532700    0.000000    0.000000
    -0.000519    8.497000    0.000000
     0.000000    0.000000   23.594999
   Fe   Cr
    49    13
Direct configuration=     1
   0.00086000  0.99993000  0.24271000
   0.16582510  0.16687191  0.30359811
   0.50119068  0.16882397  0.30317387
   0.66822000  0.00107000  0.24272000
   0.83475755  0.16959563  0.30326156
   0.00044000  0.33497000  0.24240000
   0.16549445  0.49995658  0.30347876
   0.33469000  0.33305000  0.24267000
   0.50233275  0.49954053  0.30278627
   0.83323483  0.50163357  0.30325824
   0.16762456  0.83354547  0.30434707
   0.33342000  0.66555000  0.24261000
   0.83612142  0.83116009  0.30362450
   0.00064000  0.00119000  0.00199000
   0.00042755  0.00004460  0.36118614
   0.16843000  0.16962000  0.06269000
   0.33460000  0.00297000  0.00254000
   0.33356295  0.00173459  0.36153765
   0.50463000  0.16850000  0.06120000
   0.83272000  0.16670000  0.06193000
   0.00004000  0.33467000  0.00213000
   0.00151203  0.33453016  0.36078237
   0.16757000  0.49895000  0.06268000
   0.50099000  0.49896000  0.06206000
   0.83393000  0.50234000  0.06235000
   0.00121000  0.66785000  0.00188000
   0.00036228  0.66655132  0.36076412
   0.16792000  0.83462000  0.06228000
   0.33437000  0.66664000  0.00225000
   0.33525215  0.66497282  0.36186884
   0.50152000  0.83563000  0.06217000
   0.66753000  0.66705000  0.00175000
   0.66698635  0.66632422  0.36035327
   0.83293000  0.83584000  0.06235000
   0.00121000  0.00098000  0.12225000
   0.16700000  0.16811000  0.18239000
   0.33470000  0.00227000  0.12192000
   0.50174000  0.16716000  0.18263000
   0.83421000  0.16639000  0.18283000
   0.16964000  0.49868000  0.18209000
   0.50219000  0.50081000  0.18317000
   0.66741000  0.33395000  0.12233000
   0.83134000  0.50253000  0.18283000
   0.00132000  0.66795000  0.12253000
   0.16898000  0.83509000  0.18243000
   0.33446000  0.66703000  0.12223000
   0.49971000  0.83538000  0.18278000
   0.66698000  0.66840000  0.12259000
   0.83488000  0.83403000  0.18294000
   0.33558000  0.99863000  0.24353000
   0.66801000  0.33262000  0.24229000
   0.00448000  0.66739000  0.24217000
   0.49742652  0.83103054  0.30347900
   0.66521000  0.67351000  0.24327000
   0.66620000  0.99680000  0.00000000
   0.66592665  0.99562089  0.36085486
   0.33213000  0.33386000  0.00135000
   0.33174580  0.33640327  0.36230882
   0.67040000  0.33673000  0.00321000
   0.66728000  0.99998000  0.12246000
   0.99806000  0.33495000  0.12235000
   0.33675000  0.33238000  0.12261000
Direct configuration=     2
   0.00086000  0.99993000  0.24271000
   0.16542343  0.16616185  0.30364862
   0.50216331  0.16871918  0.30349134
   0.66822000  0.00107000  0.24272000
   0.83445227  0.17024608  0.30345511
   0.00044000  0.33497000  0.24240000
   0.16548761  0.50058993  0.30368343
   0.33469000  0.33305000  0.24267000
   0.50329493  0.49901888  0.30288202
   0.83227601  0.50058260  0.30290856
   0.16808880  0.83378062  0.30406783
   0.33342000  0.66555000  0.24261000
   0.83612364  0.83163586  0.30369538
   0.00064000  0.00119000  0.00199000
  -0.00022047  0.00074494  0.36116054
   0.16843000  0.16962000  0.06269000
   0.33460000  0.00297000  0.00254000
   0.33398195  0.00278361  0.36169195
   0.50463000  0.16850000  0.06120000
   0.83272000  0.16670000  0.06193000
   0.00004000  0.33467000  0.00213000
   0.00184513  0.33402314  0.36067347
   0.16757000  0.49895000  0.06268000
   0.50099000  0.49896000  0.06206000
   0.83393000  0.50234000  0.06235000
   0.00121000  0.66785000  0.00188000
   0.00010104  0.66621810  0.36079320
   0.16792000  0.83462000  0.06228000
   0.33437000  0.66664000  0.00225000
   0.33536601  0.66432895  0.36182464
   0.50152000  0.83563000  0.06217000
   0.66753000  0.66705000  0.00175000
   0.66663450  0.66658494  0.36060629
   0.83293000  0.83584000  0.06235000
   0.00121000  0.00098000  0.12225000
   0.16700000  0.16811000  0.18239000
   0.33470000  0.00227000  0.12192000
   0.50174000  0.16716000  0.18263000
   0.83421000  0.16639000  0.18283000
   0.16964000  0.49868000  0.18209000
   0.50219000  0.50081000  0.18317000
   0.66741000  0.33395000  0.12233000
   0.83134000  0.50253000  0.18283000
   0.00132000  0.66795000  0.12253000
   0.16898000  0.83509000  0.18243000
   0.33446000  0.66703000  0.12223000
   0.49971000  0.83538000  0.18278000
   0.66698000  0.66840000  0.12259000
   0.83488000  0.83403000  0.18294000
   0.33558000  0.99863000  0.24353000
   0.66801000  0.33262000  0.24229000
   0.00448000  0.66739000  0.24217000
   0.49715270  0.83172862  0.30259278
   0.66521000  0.67351000  0.24327000
   0.66620000  0.99680000  0.00000000
   0.66612017  0.99578718  0.36098201
   0.33213000  0.33386000  0.00135000
   0.33183710  0.33586060  0.36256694
   0.67040000  0.33673000  0.00321000
   0.66728000  0.99998000  0.12246000
   0.99806000  0.33495000  0.12235000
   0.33675000  0.33238000  0.12261000
Direct configuration=     3
   0.00086000  0.99993000  0.24271000
   0.16494985  0.16532466  0.30370818
   0.50331006  0.16859564  0.30386565
   0.66822000  0.00107000  0.24272000
   0.83409234  0.17101298  0.30368331
   0.00044000  0.33497000  0.24240000
   0.16547955  0.50133668  0.30392474
   0.33469000  0.33305000  0.24267000
   0.50442938  0.49840385  0.30299491
   0.83114554  0.49934349  0.30249628
   0.16863616  0.83405788  0.30373860
   0.33342000  0.66555000  0.24261000
   0.83612627  0.83219680  0.30377896
   0.00064000  0.00119000  0.00199000
  -0.00098450  0.00157066  0.36113036
   0.16843000  0.16962000  0.06269000
   0.33460000  0.00297000  0.00254000
   0.33447596  0.00402044  0.36187386
   0.50463000  0.16850000  0.06120000
   0.83272000  0.16670000  0.06193000
   0.00004000  0.33467000  0.00213000
   0.00223787  0.33342536  0.36054507
   0.16757000  0.49895000  0.06268000
   0.50099000  0.49896000  0.06206000
   0.83393000  0.50234000  0.06235000
   0.00121000  0.66785000  0.00188000
  -0.00020696  0.66582524  0.36082750
   0.16792000  0.83462000  0.06228000
   0.33437000  0.66664000  0.00225000
   0.33550024  0.66356980  0.36177254
   0.50152000  0.83563000  0.06217000
   0.66753000  0.66705000  0.00175000
   0.66621966  0.66689233  0.36090460
   0.83293000  0.83584000  0.06235000
   0.00121000  0.00098000  0.12225000
   0.16700000  0.16811000  0.18239000
   0.33470000  0.00227000  0.12192000
   0.50174000  0.16716000  0.18263000
   0.83421000  0.16639000  0.18283000
   0.16964000  0.49868000  0.18209000
   0.50219000  0.50081000  0.18317000
   0.66741000  0.33395000  0.12233000
   0.83134000  0.50253000  0.18283000
   0.00132000  0.66795000  0.12253000
   0.16898000  0.83509000  0.18243000
   0.33446000  0.66703000  0.12223000
   0.49971000  0.83538000  0.18278000
   0.66698000  0.66840000  0.12259000
   0.83488000  0.83403000  0.18294000
   0.33558000  0.99863000  0.24353000
   0.66801000  0.33262000  0.24229000
   0.00448000  0.66739000  0.24217000
   0.49682987  0.83255168  0.30154790
   0.66521000  0.67351000  0.24327000
   0.66620000  0.99680000  0.00000000
   0.66634833  0.99598324  0.36113193
   0.33213000  0.33386000  0.00135000
   0.33194475  0.33522077  0.36287128
   0.67040000  0.33673000  0.00321000
   0.66728000  0.99998000  0.12246000
   0.99806000  0.33495000  0.12235000
   0.33675000  0.33238000  0.12261000
Direct configuration=     4
   0.00086000  0.99993000  0.24271000
   0.16485349  0.16515432  0.30372030
   0.50354339  0.16857051  0.30394180
   0.66822000  0.00107000  0.24272000
   0.83401911  0.17116902  0.30372974
   0.00044000  0.33497000  0.24240000
   0.16547792  0.50148862  0.30397384
   0.33469000  0.33305000  0.24267000
   0.50466020  0.49827871  0.30301788
   0.83091552  0.49909137  0.30241240
   0.16874753  0.83411429  0.30367161
   0.33342000  0.66555000  0.24261000
   0.83612680  0.83231094  0.30379597
   0.00064000  0.00119000  0.00199000
  -0.00113996  0.00173867  0.36112422
   0.16843000  0.16962000  0.06269000
   0.33460000  0.00297000  0.00254000
   0.33457648  0.00427210  0.36191087
   0.50463000  0.16850000  0.06120000
   0.83272000  0.16670000  0.06193000
   0.00004000  0.33467000  0.00213000
   0.00231778  0.33330373  0.36051895
   0.16757000  0.49895000  0.06268000
   0.50099000  0.49896000  0.06206000
   0.83393000  0.50234000  0.06235000
   0.00121000  0.66785000  0.00188000
  -0.00026963  0.66574530  0.36083448
   0.16792000  0.83462000  0.06228000
   0.33437000  0.66664000  0.00225000
   0.33552755  0.66341534  0.36176194
   0.50152000  0.83563000  0.06217000
   0.66753000  0.66705000  0.00175000
   0.66613525  0.66695488  0.36096530
   0.83293000  0.83584000  0.06235000
   0.00121000  0.00098000  0.12225000
   0.16700000  0.16811000  0.18239000
   0.33470000  0.00227000  0.12192000
   0.50174000  0.16716000  0.18263000
   0.83421000  0.16639000  0.18283000
   0.16964000  0.49868000  0.18209000
   0.50219000  0.50081000  0.18317000
   0.66741000  0.33395000  0.12233000
   0.83134000  0.50253000  0.18283000
   0.00132000  0.66795000  0.12253000
   0.16898000  0.83509000  0.18243000
   0.33446000  0.66703000  0.12223000
   0.49971000  0.83538000  0.18278000
   0.66698000  0.66840000  0.12259000
   0.83488000  0.83403000  0.18294000
   0.33558000  0.99863000  0.24353000
   0.66801000  0.33262000  0.24229000
   0.00448000  0.66739000  0.24217000
   0.49676418  0.83271915  0.30133529
   0.66521000  0.67351000  0.24327000
   0.66620000  0.99680000  0.00000000
   0.66639475  0.99602313  0.36116243
   0.33213000  0.33386000  0.00135000
   0.33196666  0.33509059  0.36293320
   0.67040000  0.33673000  0.00321000
   0.66728000  0.99998000  0.12246000
   0.99806000  0.33495000  0.12235000
   0.33675000  0.33238000  0.12261000
Direct configuration=     5
   0.00086000  0.99993000  0.24271000
   0.16529489  0.16530311  0.30369472
   0.50401580  0.16903435  0.30410983
   0.66822000  0.00107000  0.24272000
   0.83374879  0.17146375  0.30374968
   0.00044000  0.33497000  0.24240000
   0.16565713  0.50132594  0.30404964
   0.33469000  0.33305000  0.24267000
   0.50491092  0.49805881  0.30313228
   0.83048129  0.49909451  0.30250591
   0.16864467  0.83423354  0.30389132
   0.33342000  0.66555000  0.24261000
   0.83608673  0.83210994  0.30388191
   0.00064000  0.00119000  0.00199000
  -0.00180548  0.00208631  0.36115251
   0.16843000  0.16962000  0.06269000
   0.33460000  0.00297000  0.00254000
   0.33510026  0.00490303  0.36192716
   0.50463000  0.16850000  0.06120000
   0.83272000  0.16670000  0.06193000
   0.00004000  0.33467000  0.00213000
   0.00261137  0.33313104  0.36050568
   0.16757000  0.49895000  0.06268000
   0.50099000  0.49896000  0.06206000
   0.83393000  0.50234000  0.06235000
   0.00121000  0.66785000  0.00188000
  -0.00088878  0.66565435  0.36059535
   0.16792000  0.83462000  0.06228000
   0.33437000  0.66664000  0.00225000
   0.33607819  0.66306006  0.36156649
   0.50152000  0.83563000  0.06217000
   0.66753000  0.66705000  0.00175000
   0.66568640  0.66761340  0.36088445
   0.83293000  0.83584000  0.06235000
   0.00121000  0.00098000  0.12225000
   0.16700000  0.16811000  0.18239000
   0.33470000  0.00227000  0.12192000
   0.50174000  0.16716000  0.18263000
   0.83421000  0.16639000  0.18283000
   0.16964000  0.49868000  0.18209000
   0.50219000  0.50081000  0.18317000
   0.66741000  0.33395000  0.12233000
   0.83134000  0.50253000  0.18283000
   0.00132000  0.66795000  0.12253000
   0.16898000  0.83509000  0.18243000
   0.33446000  0.66703000  0.12223000
   0.49971000  0.83538000  0.18278000
   0.66698000  0.66840000  0.12259000
   0.83488000  0.83403000  0.18294000
   0.33558000  0.99863000  0.24353000
   0.66801000  0.33262000  0.24229000
   0.00448000  0.66739000  0.24217000
   0.49681808  0.83276330  0.30128991
   0.66521000  0.67351000  0.24327000
   0.66620000  0.99680000  0.00000000
   0.66657418  0.99581074  0.36137249
   0.33213000  0.33386000  0.00135000
   0.33184219  0.33455868  0.36306743
   0.67040000  0.33673000  0.00321000
   0.66728000  0.99998000  0.12246000
   0.99806000  0.33495000  0.12235000
   0.33675000  0.33238000  0.12261000
Direct configuration=     6
   0.00086000  0.99993000  0.24271000
   0.16635925  0.16566190  0.30363304
   0.50515494  0.17015283  0.30451498
   0.66822000  0.00107000  0.24272000
   0.83309696  0.17217445  0.30379777
   0.00044000  0.33497000  0.24240000
   0.16608927  0.50093367  0.30423244
   0.33469000  0.33305000  0.24267000
   0.50551549  0.49752856  0.30340814
   0.82943423  0.49910208  0.30273142
   0.16839663  0.83452110  0.30442110
   0.33342000  0.66555000  0.24261000
   0.83599011  0.83162527  0.30408914
   0.00064000  0.00119000  0.00199000
  -0.00341028  0.00292459  0.36122071
   0.16843000  0.16962000  0.06269000
   0.33460000  0.00297000  0.00254000
   0.33636327  0.00642442  0.36196643
   0.50463000  0.16850000  0.06120000
   0.83272000  0.16670000  0.06193000
   0.00004000  0.33467000  0.00213000
   0.00331932  0.33271463  0.36047369
   0.16757000  0.49895000  0.06268000
   0.50099000  0.49896000  0.06206000
   0.83393000  0.50234000  0.06235000
   0.00121000  0.66785000  0.00188000
  -0.00238177  0.66543504  0.36001874
   0.16792000  0.83462000  0.06228000
   0.33437000  0.66664000  0.00225000
   0.33740596  0.66220335  0.36109519
   0.50152000  0.83563000  0.06217000
   0.66753000  0.66705000  0.00175000
   0.66460406  0.66920133  0.36068951
   0.83293000  0.83584000  0.06235000
   0.00121000  0.00098000  0.12225000
   0.16700000  0.16811000  0.18239000
   0.33470000  0.00227000  0.12192000
   0.50174000  0.16716000  0.18263000
   0.83421000  0.16639000  0.18283000
   0.16964000  0.49868000  0.18209000
   0.50219000  0.50081000  0.18317000
   0.66741000  0.33395000  0.12233000
   0.83134000  0.50253000  0.18283000
   0.00132000  0.66795000  0.12253000
   0.16898000  0.83509000  0.18243000
   0.33446000  0.66703000  0.12223000
   0.49971000  0.83538000  0.18278000
   0.66698000  0.66840000  0.12259000
   0.83488000  0.83403000  0.18294000
   0.33558000  0.99863000  0.24353000
   0.66801000  0.33262000  0.24229000
   0.00448000  0.66739000  0.24217000
   0.49694804  0.83286977  0.30118049
   0.66521000  0.67351000  0.24327000
   0.66620000  0.99680000  0.00000000
   0.66700684  0.99529858  0.36187900
   0.33213000  0.33386000  0.00135000
   0.33154206  0.33327609  0.36339109
   0.67040000  0.33673000  0.00321000
   0.66728000  0.99998000  0.12246000
   0.99806000  0.33495000  0.12235000
   0.33675000  0.33238000  0.12261000
Direct configuration=     7
   0.00086000  0.99993000  0.24271000
   0.16613661  0.16544368  0.30354223
   0.50594325  0.17060823  0.30457093
   0.66822000  0.00107000  0.24272000
   0.83311183  0.17209058  0.30367694
   0.00044000  0.33497000  0.24240000
   0.16637295  0.50061361  0.30410317
   0.33469000  0.33305000  0.24267000
   0.50509089  0.49715614  0.30330400
   0.82947865  0.49887668  0.30283015
   0.16855371  0.83490437  0.30458794
   0.33342000  0.66555000  0.24261000
   0.83569570  0.83226199  0.30384325
   0.00064000  0.00119000  0.00199000
  -0.00404608  0.00365160  0.36125879
   0.16843000  0.16962000  0.06269000
   0.33460000  0.00297000  0.00254000
   0.33707868  0.00692835  0.36199669
   0.50463000  0.16850000  0.06120000
   0.83272000  0.16670000  0.06193000
   0.00004000  0.33467000  0.00213000
   0.00374613  0.33249857  0.36058096
   0.16757000  0.49895000  0.06268000
   0.50099000  0.49896000  0.06206000
   0.83393000  0.50234000  0.06235000
   0.00121000  0.66785000  0.00188000
  -0.00317361  0.66495496  0.35995747
   0.16792000  0.83462000  0.06228000
   0.33437000  0.66664000  0.00225000
   0.33828519  0.66186261  0.36108452
   0.50152000  0.83563000  0.06217000
   0.66753000  0.66705000  0.00175000
   0.66387935  0.67028118  0.36087212
   0.83293000  0.83584000  0.06235000
   0.00121000  0.00098000  0.12225000
   0.16700000  0.16811000  0.18239000
   0.33470000  0.00227000  0.12192000
   0.50174000  0.16716000  0.18263000
   0.83421000  0.16639000  0.18283000
   0.16964000  0.49868000  0.18209000
   0.50219000  0.50081000  0.18317000
   0.66741000  0.33395000  0.12233000
   0.83134000  0.50253000  0.18283000
   0.00132000  0.66795000  0.12253000
   0.16898000  0.83509000  0.18243000
   0.33446000  0.66703000  0.12223000
   0.49971000  0.83538000  0.18278000
   0.66698000  0.66840000  0.12259000
   0.83488000  0.83403000  0.18294000
   0.33558000  0.99863000  0.24353000
   0.66801000  0.33262000  0.24229000
   0.00448000  0.66739000  0.24217000
   0.49682421  0.83330391  0.30125384
   0.66521000  0.67351000  0.24327000
   0.66620000  0.99680000  0.00000000
   0.66731626  0.99494854  0.36216520
   0.33213000  0.33386000  0.00135000
   0.33134804  0.33285414  0.36357769
   0.67040000  0.33673000  0.00321000
   0.66728000  0.99998000  0.12246000
   0.99806000  0.33495000  0.12235000
   0.33675000  0.33238000  0.12261000
Direct configuration=     8
   0.00086000  0.99993000  0.24271000
   0.16598195  0.16529209  0.30347914
   0.50649087  0.17092459  0.30460979
   0.66822000  0.00107000  0.24272000
   0.83312217  0.17203231  0.30359300
   0.00044000  0.33497000  0.24240000
   0.16657001  0.50039127  0.30401337
   0.33469000  0.33305000  0.24267000
   0.50479593  0.49689743  0.30323166
   0.82950951  0.49872011  0.30289874
   0.16866282  0.83517062  0.30470383
   0.33342000  0.66555000  0.24261000
   0.83549118  0.83270430  0.30367244
   0.00064000  0.00119000  0.00199000
  -0.00448775  0.00415663  0.36128523
   0.16843000  0.16962000  0.06269000
   0.33460000  0.00297000  0.00254000
   0.33757565  0.00727841  0.36201771
   0.50463000  0.16850000  0.06120000
   0.83272000  0.16670000  0.06193000
   0.00004000  0.33467000  0.00213000
   0.00404261  0.33234849  0.36065547
   0.16757000  0.49895000  0.06268000
   0.50099000  0.49896000  0.06206000
   0.83393000  0.50234000  0.06235000
   0.00121000  0.66785000  0.00188000
  -0.00372368  0.66462146  0.35991490
   0.16792000  0.83462000  0.06228000
   0.33437000  0.66664000  0.00225000
   0.33889597  0.66162591  0.36107711
   0.50152000  0.83563000  0.06217000
   0.66753000  0.66705000  0.00175000
   0.66337592  0.67103132  0.36099898
   0.83293000  0.83584000  0.06235000
   0.00121000  0.00098000  0.12225000
   0.16700000  0.16811000  0.18239000
   0.33470000  0.00227000  0.12192000
   0.50174000  0.16716000  0.18263000
   0.83421000  0.16639000  0.18283000
   0.16964000  0.49868000  0.18209000
   0.50219000  0.50081000  0.18317000
   0.66741000  0.33395000  0.12233000
   0.83134000  0.50253000  0.18283000
   0.00132000  0.66795000  0.12253000
   0.16898000  0.83509000  0.18243000
   0.33446000  0.66703000  0.12223000
   0.49971000  0.83538000  0.18278000
   0.66698000  0.66840000  0.12259000
   0.83488000  0.83403000  0.18294000
   0.33558000  0.99863000  0.24353000
   0.66801000  0.33262000  0.24229000
   0.00448000  0.66739000  0.24217000
   0.49673819  0.83360549  0.30130479
   0.66521000  0.67351000  0.24327000
   0.66620000  0.99680000  0.00000000
   0.66753121  0.99470538  0.36236401
   0.33213000  0.33386000  0.00135000
   0.33121326  0.33256102  0.36370731
   0.67040000  0.33673000  0.00321000
   0.66728000  0.99998000  0.12246000
   0.99806000  0.33495000  0.12235000
   0.33675000  0.33238000  0.12261000
Direct configuration=     9
   0.00086000  0.99993000  0.24271000
   0.16582365  0.16525640  0.30350669
   0.50668645  0.17085673  0.30451221
   0.66822000  0.00107000  0.24272000
   0.83331693  0.17184021  0.30350796
   0.00044000  0.33497000  0.24240000
   0.16640020  0.50077496  0.30406129
   0.33469000  0.33305000  0.24267000
   0.50461657  0.49731802  0.30304031
   0.82963846  0.49879557  0.30290873
   0.16866709  0.83485265  0.30466670
   0.33342000  0.66555000  0.24261000
   0.83560300  0.83272947  0.30365971
   0.00064000  0.00119000  0.00199000
  -0.00435205  0.00425593  0.36128224
   0.16843000  0.16962000  0.06269000
   0.33460000  0.00297000  0.00254000
   0.33756748  0.00715149  0.36205856
   0.50463000  0.16850000  0.06120000
   0.83272000  0.16670000  0.06193000
   0.00004000  0.33467000  0.00213000
   0.00431656  0.33229851  0.36069008
   0.16757000  0.49895000  0.06268000
   0.50099000  0.49896000  0.06206000
   0.83393000  0.50234000  0.06235000
   0.00121000  0.66785000  0.00188000
  -0.00387417  0.66438956  0.35990834
   0.16792000  0.83462000  0.06228000
   0.33437000  0.66664000  0.00225000
   0.33896551  0.66168302  0.36126095
   0.50152000  0.83563000  0.06217000
   0.66753000  0.66705000  0.00175000
   0.66324865  0.67153909  0.36107067
   0.83293000  0.83584000  0.06235000
   0.00121000  0.00098000  0.12225000
   0.16700000  0.16811000  0.18239000
   0.33470000  0.00227000  0.12192000
   0.50174000  0.16716000  0.18263000
   0.83421000  0.16639000  0.18283000
   0.16964000  0.49868000  0.18209000
   0.50219000  0.50081000  0.18317000
   0.66741000  0.33395000  0.12233000
   0.83134000  0.50253000  0.18283000
   0.00132000  0.66795000  0.12253000
   0.16898000  0.83509000  0.18243000
   0.33446000  0.66703000  0.12223000
   0.49971000  0.83538000  0.18278000
   0.66698000  0.66840000  0.12259000
   0.83488000  0.83403000  0.18294000
   0.33558000  0.99863000  0.24353000
   0.66801000  0.33262000  0.24229000
   0.00448000  0.66739000  0.24217000
   0.49663190  0.83382005  0.30124360
   0.66521000  0.67351000  0.24327000
   0.66620000  0.99680000  0.00000000
   0.66763916  0.99458931  0.36245373
   0.33213000  0.33386000  0.00135000
   0.33102600  0.33255660  0.36370979
   0.67040000  0.33673000  0.00321000
   0.66728000  0.99998000  0.12246000
   0.99806000  0.33495000  0.12235000
   0.33675000  0.33238000  0.12261000
Direct configuration=    10
   0.00086000  0.99993000  0.24271000
   0.16567438  0.16522274  0.30353266
   0.50687089  0.17079274  0.30442020
   0.66822000  0.00107000  0.24272000
   0.83350059  0.17165905  0.30342778
   0.00044000  0.33497000  0.24240000
   0.16624007  0.50113679  0.30410648
   0.33469000  0.33305000  0.24267000
   0.50444744  0.49771463  0.30285987
   0.82976006  0.49886674  0.30291815
   0.16867111  0.83455281  0.30463168
   0.33342000  0.66555000  0.24261000
   0.83570845  0.83275320  0.30364770
   0.00064000  0.00119000  0.00199000
  -0.00422408  0.00434958  0.36127942
   0.16843000  0.16962000  0.06269000
   0.33460000  0.00297000  0.00254000
   0.33755978  0.00703180  0.36209709
   0.50463000  0.16850000  0.06120000
   0.83272000  0.16670000  0.06193000
   0.00004000  0.33467000  0.00213000
   0.00457489  0.33225138  0.36072271
   0.16757000  0.49895000  0.06268000
   0.50099000  0.49896000  0.06206000
   0.83393000  0.50234000  0.06235000
   0.00121000  0.66785000  0.00188000
  -0.00401608  0.66417089  0.35990215
   0.16792000  0.83462000  0.06228000
   0.33437000  0.66664000  0.00225000
   0.33903109  0.66173687  0.36143431
   0.50152000  0.83563000  0.06217000
   0.66753000  0.66705000  0.00175000
   0.66312864  0.67201792  0.36113829
   0.83293000  0.83584000  0.06235000
   0.00121000  0.00098000  0.12225000
   0.16700000  0.16811000  0.18239000
   0.33470000  0.00227000  0.12192000
   0.50174000  0.16716000  0.18263000
   0.83421000  0.16639000  0.18283000
   0.16964000  0.49868000  0.18209000
   0.50219000  0.50081000  0.18317000
   0.66741000  0.33395000  0.12233000
   0.83134000  0.50253000  0.18283000
   0.00132000  0.66795000  0.12253000
   0.16898000  0.83509000  0.18243000
   0.33446000  0.66703000  0.12223000
   0.49971000  0.83538000  0.18278000
   0.66698000  0.66840000  0.12259000
   0.83488000  0.83403000  0.18294000
   0.33558000  0.99863000  0.24353000
   0.66801000  0.33262000  0.24229000
   0.00448000  0.66739000  0.24217000
   0.49653167  0.83402239  0.30118590
   0.66521000  0.67351000  0.24327000
   0.66620000  0.99680000  0.00000000
   0.66774095  0.99447985  0.36253834
   0.33213000  0.33386000  0.00135000
   0.33084941  0.33255243  0.36371213
   0.67040000  0.33673000  0.00321000
   0.66728000  0.99998000  0.12246000
   0.99806000  0.33495000  0.12235000
   0.33675000  0.33238000  0.12261000
Direct configuration=    11
   0.00086000  0.99993000  0.24271000
   0.16597615  0.16517912  0.30352544
   0.50678760  0.17087662  0.30439609
   0.66822000  0.00107000  0.24272000
   0.83365269  0.17156341  0.30340887
   0.00044000  0.33497000  0.24240000
   0.16634405  0.50116316  0.30416779
   0.33469000  0.33305000  0.24267000
   0.50422925  0.49830543  0.30280713
   0.82960199  0.49889854  0.30291764
   0.16867461  0.83449650  0.30464160
   0.33342000  0.66555000  0.24261000
   0.83577706  0.83264941  0.30368407
   0.00064000  0.00119000  0.00199000
  -0.00387795  0.00417499  0.36128251
   0.16843000  0.16962000  0.06269000
   0.33460000  0.00297000  0.00254000
   0.33741735  0.00678267  0.36205831
   0.50463000  0.16850000  0.06120000
   0.83272000  0.16670000  0.06193000
   0.00004000  0.33467000  0.00213000
   0.00482339  0.33223171  0.36073772
   0.16757000  0.49895000  0.06268000
   0.50099000  0.49896000  0.06206000
   0.83393000  0.50234000  0.06235000
   0.00121000  0.66785000  0.00188000
  -0.00426494  0.66405978  0.36004386
   0.16792000  0.83462000  0.06228000
   0.33437000  0.66664000  0.00225000
   0.33912766  0.66188585  0.36154172
   0.50152000  0.83563000  0.06217000
   0.66753000  0.66705000  0.00175000
   0.66291518  0.67267771  0.36107521
   0.83293000  0.83584000  0.06235000
   0.00121000  0.00098000  0.12225000
   0.16700000  0.16811000  0.18239000
   0.33470000  0.00227000  0.12192000
   0.50174000  0.16716000  0.18263000
   0.83421000  0.16639000  0.18283000
   0.16964000  0.49868000  0.18209000
   0.50219000  0.50081000  0.18317000
   0.66741000  0.33395000  0.12233000
   0.83134000  0.50253000  0.18283000
   0.00132000  0.66795000  0.12253000
   0.16898000  0.83509000  0.18243000
   0.33446000  0.66703000  0.12223000
   0.49971000  0.83538000  0.18278000
   0.66698000  0.66840000  0.12259000
   0.83488000  0.83403000  0.18294000
   0.33558000  0.99863000  0.24353000
   0.66801000  0.33262000  0.24229000
   0.00448000  0.66739000  0.24217000
   0.49639380  0.83417502  0.30118906
   0.66521000  0.67351000  0.24327000
   0.66620000  0.99680000  0.00000000
   0.66782822  0.99438619  0.36261004
   0.33213000  0.33386000  0.00135000
   0.33077879  0.33258835  0.36359826
   0.67040000  0.33673000  0.00321000
   0.66728000  0.99998000  0.12246000
   0.99806000  0.33495000  0.12235000
   0.33675000  0.33238000  0.12261000
Direct configuration=    12
   0.00086000  0.99993000  0.24271000
   0.16611822  0.16515859  0.30352204
   0.50674838  0.17091611  0.30438473
   0.66822000  0.00107000  0.24272000
   0.83372429  0.17151838  0.30339997
   0.00044000  0.33497000  0.24240000
   0.16639300  0.50117558  0.30419665
   0.33469000  0.33305000  0.24267000
   0.50412653  0.49858359  0.30278230
   0.82952758  0.49891351  0.30291740
   0.16867626  0.83446999  0.30464628
   0.33342000  0.66555000  0.24261000
   0.83580937  0.83260054  0.30370120
   0.00064000  0.00119000  0.00199000
  -0.00371499  0.00409279  0.36128397
   0.16843000  0.16962000  0.06269000
   0.33460000  0.00297000  0.00254000
   0.33735029  0.00666538  0.36204005
   0.50463000  0.16850000  0.06120000
   0.83272000  0.16670000  0.06193000
   0.00004000  0.33467000  0.00213000
   0.00494038  0.33222245  0.36074479
   0.16757000  0.49895000  0.06268000
   0.50099000  0.49896000  0.06206000
   0.83393000  0.50234000  0.06235000
   0.00121000  0.66785000  0.00188000
  -0.00438211  0.66400747  0.36011058
   0.16792000  0.83462000  0.06228000
   0.33437000  0.66664000  0.00225000
   0.33917312  0.66195600  0.36159229
   0.50152000  0.83563000  0.06217000
   0.66753000  0.66705000  0.00175000
   0.66281469  0.67298835  0.36104552
   0.83293000  0.83584000  0.06235000
   0.00121000  0.00098000  0.12225000
   0.16700000  0.16811000  0.18239000
   0.33470000  0.00227000  0.12192000
   0.50174000  0.16716000  0.18263000
   0.83421000  0.16639000  0.18283000
   0.16964000  0.49868000  0.18209000
   0.50219000  0.50081000  0.18317000
   0.66741000  0.33395000  0.12233000
   0.83134000  0.50253000  0.18283000
   0.00132000  0.66795000  0.12253000
   0.16898000  0.83509000  0.18243000
   0.33446000  0.66703000  0.12223000
   0.49971000  0.83538000  0.18278000
   0.66698000  0.66840000  0.12259000
   0.83488000  0.83403000  0.18294000
   0.33558000  0.99863000  0.24353000
   0.66801000  0.33262000  0.24229000
   0.00448000  0.66739000  0.24217000
   0.49632890  0.83424689  0.30119055
   0.66521000  0.67351000  0.24327000
   0.66620000  0.99680000  0.00000000
   0.66786931  0.99434210  0.36264380
   0.33213000  0.33386000  0.00135000
   0.33074554  0.33260526  0.36354465
   0.67040000  0.33673000  0.00321000
   0.66728000  0.99998000  0.12246000
   0.99806000  0.33495000  0.12235000
   0.33675000  0.33238000  0.12261000
Direct configuration=    13
   0.00086000  0.99993000  0.24271000
   0.16607314  0.16516510  0.30352312
   0.50676083  0.17090358  0.30438834
   0.66822000  0.00107000  0.24272000
   0.83370157  0.17153267  0.30340279
   0.00044000  0.33497000  0.24240000
   0.16637747  0.50117164  0.30418749
   0.33469000  0.33305000  0.24267000
   0.50415913  0.49849531  0.30279018
   0.82955119  0.49890876  0.30291748
   0.16867574  0.83447840  0.30464479
   0.33342000  0.66555000  0.24261000
   0.83579912  0.83261605  0.30369577
   0.00064000  0.00119000  0.00199000
  -0.00376671  0.00411888  0.36128351
   0.16843000  0.16962000  0.06269000
   0.33460000  0.00297000  0.00254000
   0.33737157  0.00670261  0.36204584
   0.50463000  0.16850000  0.06120000
   0.83272000  0.16670000  0.06193000
   0.00004000  0.33467000  0.00213000
   0.00490325  0.33222539  0.36074255
   0.16757000  0.49895000  0.06268000
   0.50099000  0.49896000  0.06206000
   0.83393000  0.50234000  0.06235000
   0.00121000  0.66785000  0.00188000
  -0.00434492  0.66402407  0.36008941
   0.16792000  0.83462000  0.06228000
   0.33437000  0.66664000  0.00225000
   0.33915869  0.66193374  0.36157624