  63  63   0   0
  0.2715385E+02  0.8532700E-09  0.8497000E-09  0.2359500E-08  0.5000000E-15
  1.000000000000000E-004
  CAR 
 ni3al                                   
      5.56994679    -45.76351327  301      0.94532234      1.00000000
    -45.764  0.0000E+00  0.0000E+00  0.0000E+00  0.0000E+00
    -45.592  0.0000E+00  0.0000E+00  0.0000E+00  0.0000E+00
    -45.421  0.0000E+00  0.0000E+00  0.0000E+00  0.0000E+00
    -45.250  0.0000E+00  0.0000E+00  0.0000E+00  0.0000E+00
    -45.079  0.0000E+00  0.0000E+00  0.0000E+00  0.0000E+00
    -44.908  0.0000E+00  0.0000E+00  0.0000E+00  0.0000E+00
    -44.737  0.0000E+00  0.0000E+00  0.0000E+00  0.0000E+00
    -44.566  0.0000E+00  0.0000E+00  0.0000E+00  0.0000E+00
    -44.395  0.0000E+00  0.0000E+00  0.0000E+00  0.0000E+00
    -44.224  0.0000E+00  0.0000E+00  0.0000E+00  0.0000E+00
    -44.052  0.0000E+00  0.0000E+00  0.0000E+00  0.0000E+00
    -43.881  0.0000E+00  0.0000E+00  0.0000E+00  0.0000E+00
    -43.710  0.0000E+00  0.0000E+00  0.0000E+00  0.0000E+00
    -43.539  0.0000E+00  0.0000E+00  0.0000E+00  0.0000E+00
    -43.368  0.0000E+00  0.1169E+02  0.0000E+00  0.2000E+01
    -43.197  0.0000E+00  0.5260E+02  0.0000E+00  0.1100E+02
    -43.026  0.0000E+00  0.5844E+02  0.0000E+00  0.2100E+02
    -42.855  0.0000E+00  0.1753E+02  0.0000E+00  0.2400E+02
    -42.684  0.5260E+02  0.1753E+02  0.9000E+01  0.2700E+02
    -42.512  0.0000E+00  0.0000E+00  0.9000E+01  0.2700E+02
    -42.341  0.5844E+01  0.0000E+00  0.1000E+02  0.2700E+02
    -42.170  0.1169E+02  0.0000E+00  0.1200E+02  0.2700E+02
    -41.999  0.0000E+00  0.0000E+00  0.1200E+02  0.2700E+02
    -41.828  0.5260E+02  0.0000E+00  0.2100E+02  0.2700E+02
    -41.657  0.5844E+02  0.0000E+00  0.3100E+02  0.2700E+02
    -41.486  0.1169E+02  0.1169E+02  0.3300E+02  0.2900E+02
    -41.315  0.0000E+00  0.5844E+01  0.3300E+02  0.3000E+02
    -41.144  0.0000E+00  0.0000E+00  0.3300E+02  0.3000E+02
    -40.972  0.0000E+00  0.0000E+00  0.3300E+02  0.3000E+02
    -40.801  0.0000E+00  0.0000E+00  0.3300E+02  0.3000E+02
    -40.630  0.0000E+00  0.0000E+00  0.3300E+02  0.3000E+02
    -40.459  0.0000E+00  0.1169E+02  0.3300E+02  0.3200E+02
    -40.288  0.1169E+02  0.0000E+00  0.3500E+02  0.3200E+02
    -40.117  0.2338E+02  0.5844E+01  0.3900E+02  0.3300E+02
    -39.946  0.0000E+00  0.1753E+02  0.3900E+02  0.3600E+02
    -39.775  0.0000E+00  0.5844E+01  0.3900E+02  0.3700E+02
    -39.603  0.0000E+00  0.1169E+02  0.3900E+02  0.3900E+02
    -39.432  0.0000E+00  0.0000E+00  0.3900E+02  0.3900E+02
    -39.261  0.0000E+00  0.0000E+00  0.3900E+02  0.3900E+02
    -39.090  0.0000E+00  0.0000E+00  0.3900E+02  0.3900E+02
    -38.919  0.0000E+00  0.0000E+00  0.3900E+02  0.3900E+02
    -38.748  0.0000E+00  0.0000E+00  0.3900E+02  0.3900E+02
    -38.577  0.0000E+00  0.0000E+00  0.3900E+02  0.3900E+02
    -38.406  0.0000E+00  0.0000E+00  0.3900E+02  0.3900E+02
    -38.235  0.0000E+00  0.0000E+00  0.3900E+02  0.3900E+02
    -38.063  0.0000E+00  0.0000E+00  0.3900E+02  0.3900E+02
    -37.892  0.0000E+00  0.0000E+00  0.3900E+02  0.3900E+02
    -37.721  0.0000E+00  0.0000E+00  0.3900E+02  0.3900E+02
    -37.550  0.0000E+00  0.0000E+00  0.3900E+02  0.3900E+02
    -37.379  0.0000E+00  0.0000E+00  0.3900E+02  0.3900E+02
    -37.208  0.0000E+00  0.0000E+00  0.3900E+02  0.3900E+02
    -37.037  0.0000E+00  0.0000E+00  0.3900E+02  0.3900E+02
    -36.866  0.0000E+00  0.0000E+00  0.3900E+02  0.3900E+02
    -36.695  0.0000E+00  0.0000E+00  0.3900E+02  0.3900E+02
    -36.523  0.0000E+00  0.0000E+00  0.3900E+02  0.3900E+02
    -36.352  0.0000E+00  0.0000E+00  0.3900E+02  0.3900E+02
    -36.181  0.0000E+00  0.0000E+00  0.3900E+02  0.3900E+02
    -36.010  0.0000E+00  0.0000E+00  0.3900E+02  0.3900E+02
    -35.839  0.0000E+00  0.0000E+00  0.3900E+02  0.3900E+02
    -35.668  0.0000E+00  0.0000E+00  0.3900E+02  0.3900E+02
    -35.497  0.0000E+00  0.0000E+00  0.3900E+02  0.3900E+02
    -35.326  0.0000E+00  0.0000E+00  0.3900E+02  0.3900E+02
    -35.155  0.0000E+00  0.0000E+00  0.3900E+02  0.3900E+02
    -34.983  0.0000E+00  0.0000E+00  0.3900E+02  0.3900E+02
    -34.812  0.0000E+00  0.0000E+00  0.3900E+02  0.3900E+02
    -34.641  0.0000E+00  0.0000E+00  0.3900E+02  0.3900E+02
    -34.470  0.0000E+00  0.0000E+00  0.3900E+02  0.3900E+02
    -34.299  0.0000E+00  0.0000E+00  0.3900E+02  0.3900E+02
    -34.128  0.0000E+00  0.0000E+00  0.3900E+02  0.3900E+02
    -33.957  0.0000E+00  0.0000E+00  0.3900E+02  0.3900E+02
    -33.786  0.0000E+00  0.0000E+00  0.3900E+02  0.3900E+02
    -33.615  0.0000E+00  0.0000E+00  0.3900E+02  0.3900E+02
    -33.443  0.0000E+00  0.0000E+00  0.3900E+02  0.3900E+02
    -33.272  0.0000E+00  0.0000E+00  0.3900E+02  0.3900E+02
    -33.101  0.0000E+00  0.0000E+00  0.3900E+02  0.3900E+02
    -32.930  0.0000E+00  0.0000E+00  0.3900E+02  0.3900E+02
    -32.759  0.0000E+00  0.0000E+00  0.3900E+02  0.3900E+02
    -32.588  0.0000E+00  0.0000E+00  0.3900E+02  0.3900E+02
    -32.417  0.0000E+00  0.0000E+00  0.3900E+02  0.3900E+02
    -32.246  0.0000E+00  0.0000E+00  0.3900E+02  0.3900E+02
    -32.075  0.0000E+00  0.0000E+00  0.3900E+02  0.3900E+02
    -31.903  0.0000E+00  0.0000E+00  0.3900E+02  0.3900E+02
    -31.732  0.0000E+00  0.0000E+00  0.3900E+02  0.3900E+02
    -31.561  0.0000E+00  0.0000E+00  0.3900E+02  0.3900E+02
    -31.390  0.0000E+00  0.0000E+00  0.3900E+02  0.3900E+02
    -31.219  0.0000E+00  0.0000E+00  0.3900E+02  0.3900E+02
    -31.048  0.0000E+00  0.0000E+00  0.3900E+02  0.3900E+02
    -30.877  0.0000E+00  0.0000E+00  0.3900E+02  0.3900E+02
    -30.706  0.0000E+00  0.0000E+00  0.3900E+02  0.3900E+02
    -30.535  0.0000E+00  0.0000E+00  0.3900E+02  0.3900E+02
    -30.363  0.0000E+00  0.0000E+00  0.3900E+02  0.3900E+02
    -30.192  0.0000E+00  0.0000E+00  0.3900E+02  0.3900E+02
    -30.021  0.0000E+00  0.0000E+00  0.3900E+02  0.3900E+02
    -29.850  0.0000E+00  0.0000E+00  0.3900E+02  0.3900E+02
    -29.679  0.0000E+00  0.0000E+00  0.3900E+02  0.3900E+02
    -29.508  0.0000E+00  0.0000E+00  0.3900E+02  0.3900E+02
    -29.337  0.0000E+00  0.0000E+00  0.3900E+02  0.3900E+02
    -29.166  0.0000E+00  0.0000E+00  0.3900E+02  0.3900E+02
    -28.995  0.0000E+00  0.0000E+00  0.3900E+02  0.3900E+02
    -28.823  0.0000E+00  0.0000E+00  0.3900E+02  0.3900E+02
    -28.652  0.0000E+00  0.0000E+00  0.3900E+02  0.3900E+02
    -28.481  0.0000E+00  0.0000E+00  0.3900E+02  0.3900E+02
    -28.310  0.0000E+00  0.0000E+00  0.3900E+02  0.3900E+02
    -28.139  0.0000E+00  0.0000E+00  0.3900E+02  0.3900E+02
    -27.968  0.0000E+00  0.0000E+00  0.3900E+02  0.3900E+02
    -27.797  0.0000E+00  0.0000E+00  0.3900E+02  0.3900E+02
    -27.626  0.0000E+00  0.0000E+00  0.3900E+02  0.3900E+02
    -27.455  0.0000E+00  0.0000E+00  0.3900E+02  0.3900E+02
    -27.283  0.0000E+00  0.0000E+00  0.3900E+02  0.3900E+02
    -27.112  0.0000E+00  0.0000E+00  0.3900E+02  0.3900E+02
    -26.941  0.0000E+00  0.0000E+00  0.3900E+02  0.3900E+02
    -26.770  0.0000E+00  0.0000E+00  0.3900E+02  0.3900E+02
    -26.599  0.0000E+00  0.0000E+00  0.3900E+02  0.3900E+02
    -26.428  0.0000E+00  0.0000E+00  0.3900E+02  0.3900E+02
    -26.257  0.0000E+00  0.0000E+00  0.3900E+02  0.3900E+02
    -26.086  0.0000E+00  0.0000E+00  0.3900E+02  0.3900E+02
    -25.915  0.0000E+00  0.0000E+00  0.3900E+02  0.3900E+02
    -25.743  0.0000E+00  0.0000E+00  0.3900E+02  0.3900E+02
    -25.572  0.0000E+00  0.0000E+00  0.3900E+02  0.3900E+02
    -25.401  0.0000E+00  0.0000E+00  0.3900E+02  0.3900E+02
    -25.230  0.0000E+00  0.0000E+00  0.3900E+02  0.3900E+02
    -25.059  0.0000E+00  0.0000E+00  0.3900E+02  0.3900E+02
    -24.888  0.0000E+00  0.0000E+00  0.3900E+02  0.3900E+02
    -24.717  0.0000E+00  0.0000E+00  0.3900E+02  0.3900E+02
    -24.546  0.0000E+00  0.0000E+00  0.3900E+02  0.3900E+02
    -24.375  0.0000E+00  0.0000E+00  0.3900E+02  0.3900E+02
    -24.203  0.0000E+00  0.0000E+00  0.3900E+02  0.3900E+02
    -24.032  0.0000E+00  0.0000E+00  0.3900E+02  0.3900E+02
    -23.861  0.0000E+00  0.0000E+00  0.3900E+02  0.3900E+02
    -23.690  0.0000E+00  0.0000E+00  0.3900E+02  0.3900E+02
    -23.519  0.0000E+00  0.0000E+00  0.3900E+02  0.3900E+02
    -23.348  0.0000E+00  0.0000E+00  0.3900E+02  0.3900E+02
    -23.177  0.0000E+00  0.0000E+00  0.3900E+02  0.3900E+02
    -23.006  0.0000E+00  0.0000E+00  0.3900E+02  0.3900E+02
    -22.835  0.0000E+00  0.0000E+00  0.3900E+02  0.3900E+02
    -22.663  0.0000E+00  0.0000E+00  0.3900E+02  0.3900E+02
    -22.492  0.0000E+00  0.0000E+00  0.3900E+02  0.3900E+02
    -22.321  0.0000E+00  0.0000E+00  0.3900E+02  0.3900E+02
    -22.150  0.0000E+00  0.0000E+00  0.3900E+02  0.3900E+02
    -21.979  0.0000E+00  0.0000E+00  0.3900E+02  0.3900E+02
    -21.808  0.0000E+00  0.0000E+00  0.3900E+02  0.3900E+02
    -21.637  0.0000E+00  0.0000E+00  0.3900E+02  0.3900E+02
    -21.466  0.0000E+00  0.0000E+00  0.3900E+02  0.3900E+02
    -21.295  0.0000E+00  0.0000E+00  0.3900E+02  0.3900E+02
    -21.123  0.0000E+00  0.0000E+00  0.3900E+02  0.3900E+02
    -20.952  0.0000E+00  0.0000E+00  0.3900E+02  0.3900E+02
    -20.781  0.0000E+00  0.0000E+00  0.3900E+02  0.3900E+02
    -20.610  0.0000E+00  0.0000E+00  0.3900E+02  0.3900E+02
    -20.439  0.0000E+00  0.0000E+00  0.3900E+02  0.3900E+02
    -20.268  0.0000E+00  0.0000E+00  0.3900E+02  0.3900E+02
    -20.097  0.0000E+00  0.0000E+00  0.3900E+02  0.3900E+02
    -19.926  0.0000E+00  0.0000E+00  0.3900E+02  0.3900E+02
    -19.755  0.0000E+00  0.0000E+00  0.3900E+02  0.3900E+02
    -19.583  0.0000E+00  0.0000E+00  0.3900E+02  0.3900E+02
    -19.412  0.0000E+00  0.0000E+00  0.3900E+02  0.3900E+02
    -19.241  0.0000E+00  0.0000E+00  0.3900E+02  0.3900E+02
    -19.070  0.0000E+00  0.0000E+00  0.3900E+02  0.3900E+02
    -18.899  0.0000E+00  0.0000E+00  0.3900E+02  0.3900E+02
    -18.728  0.0000E+00  0.0000E+00  0.3900E+02  0.3900E+02
    -18.557  0.0000E+00  0.0000E+00  0.3900E+02  0.3900E+02
    -18.386  0.0000E+00  0.0000E+00  0.3900E+02  0.3900E+02
    -18.215  0.0000E+00  0.0000E+00  0.3900E+02  0.3900E+02
    -18.043  0.0000E+00  0.0000E+00  0.3900E+02  0.3900E+02
    -17.872  0.0000E+00  0.0000E+00  0.3900E+02  0.3900E+02
    -17.701  0.0000E+00  0.0000E+00  0.3900E+02  0.3900E+02
    -17.530  0.0000E+00  0.0000E+00  0.3900E+02  0.3900E+02
    -17.359  0.0000E+00  0.0000E+00  0.3900E+02  0.3900E+02
    -17.188  0.0000E+00  0.0000E+00  0.3900E+02  0.3900E+02
    -17.017  0.0000E+00  0.0000E+00  0.3900E+02  0.3900E+02
    -16.846  0.0000E+00  0.0000E+00  0.3900E+02  0.3900E+02
    -16.675  0.0000E+00  0.0000E+00  0.3900E+02  0.3900E+02
    -16.503  0.0000E+00  0.0000E+00  0.3900E+02  0.3900E+02
    -16.332  0.0000E+00  0.0000E+00  0.3900E+02  0.3900E+02
    -16.161  0.0000E+00  0.0000E+00  0.3900E+02  0.3900E+02
    -15.990  0.0000E+00  0.0000E+00  0.3900E+02  0.3900E+02
    -15.819  0.0000E+00  0.0000E+00  0.3900E+02  0.3900E+02
    -15.648  0.0000E+00  0.0000E+00  0.3900E+02  0.3900E+02
    -15.477  0.2338E+02  0.2922E+02  0.4300E+02  0.4400E+02
    -15.306  0.5844E+01  0.0000E+00  0.4400E+02  0.4400E+02
    -15.135  0.0000E+00  0.0000E+00  0.4400E+02  0.4400E+02
    -14.963  0.0000E+00  0.0000E+00  0.4400E+02  0.4400E+02
    -14.792  0.0000E+00  0.0000E+00  0.4400E+02  0.4400E+02
    -14.621  0.0000E+00  0.0000E+00  0.4400E+02  0.4400E+02
    -14.450  0.0000E+00  0.0000E+00  0.4400E+02  0.4400E+02
    -14.279  0.0000E+00  0.0000E+00  0.4400E+02  0.4400E+02
    -14.108  0.0000E+00  0.0000E+00  0.4400E+02  0.4400E+02
    -13.937  0.0000E+00  0.0000E+00  0.4400E+02  0.4400E+02
    -13.766  0.0000E+00  0.0000E+00  0.4400E+02  0.4400E+02
    -13.595  0.0000E+00  0.0000E+00  0.4400E+02  0.4400E+02
    -13.423  0.0000E+00  0.0000E+00  0.4400E+02  0.4400E+02
    -13.252  0.0000E+00  0.0000E+00  0.4400E+02  0.4400E+02
    -13.081  0.0000E+00  0.0000E+00  0.4400E+02  0.4400E+02
    -12.910  0.0000E+00  0.0000E+00  0.4400E+02  0.4400E+02
    -12.739  0.0000E+00  0.0000E+00  0.4400E+02  0.4400E+02
    -12.568  0.0000E+00  0.0000E+00  0.4400E+02  0.4400E+02
    -12.397  0.0000E+00  0.0000E+00  0.4400E+02  0.4400E+02
    -12.226  0.0000E+00  0.0000E+00  0.4400E+02  0.4400E+02
    -12.055  0.0000E+00  0.0000E+00  0.4400E+02  0.4400E+02
    -11.883  0.0000E+00  0.0000E+00  0.4400E+02  0.4400E+02
    -11.712  0.0000E+00  0.0000E+00  0.4400E+02  0.4400E+02
    -11.541  0.0000E+00  0.0000E+00  0.4400E+02  0.4400E+02
    -11.370  0.0000E+00  0.0000E+00  0.4400E+02  0.4400E+02
    -11.199  0.0000E+00  0.0000E+00  0.4400E+02  0.4400E+02
    -11.028  0.0000E+00  0.0000E+00  0.4400E+02  0.4400E+02
    -10.857  0.0000E+00  0.0000E+00  0.4400E+02  0.4400E+02
    -10.686  0.0000E+00  0.0000E+00  0.4400E+02  0.4400E+02
    -10.515  0.0000E+00  0.0000E+00  0.4400E+02  0.4400E+02
    -10.343  0.0000E+00  0.0000E+00  0.4400E+02  0.4400E+02
    -10.172  0.0000E+00  0.0000E+00  0.4400E+02  0.4400E+02
    -10.001  0.0000E+00  0.0000E+00  0.4400E+02  0.4400E+02
     -9.830  0.0000E+00  0.0000E+00  0.4400E+02  0.4400E+02
     -9.659  0.0000E+00  0.0000E+00  0.4400E+02  0.4400E+02
     -9.488  0.0000E+00  0.0000E+00  0.4400E+02  0.4400E+02
     -9.317  0.0000E+00  0.0000E+00  0.4400E+02  0.4400E+02
     -9.146  0.0000E+00  0.0000E+00  0.4400E+02  0.4400E+02
     -8.975  0.0000E+00  0.0000E+00  0.4400E+02  0.4400E+02
     -8.803  0.0000E+00  0.0000E+00  0.4400E+02  0.4400E+02
     -8.632  0.0000E+00  0.0000E+00  0.4400E+02  0.4400E+02
     -8.461  0.0000E+00  0.0000E+00  0.4400E+02  0.4400E+02
     -8.290  0.0000E+00  0.0000E+00  0.4400E+02  0.4400E+02
     -8.119  0.0000E+00  0.0000E+00  0.4400E+02  0.4400E+02
     -7.948  0.0000E+00  0.0000E+00  0.4400E+02  0.4400E+02
     -7.777  0.0000E+00  0.0000E+00  0.4400E+02  0.4400E+02
     -7.606  0.8952E+01  0.5844E+01  0.4500E+02  0.4500E+02
     -7.435  0.0000E+00  0.0000E+00  0.4500E+02  0.4500E+02
     -7.263  0.0000E+00  0.0000E+00  0.4500E+02  0.4500E+02
     -7.092  0.1762E+01  0.3634E+00  0.4510E+02  0.4500E+02
     -6.921  0.1733E+01  0.1601E+01  0.4537E+02  0.4524E+02
     -6.750  0.1668E+01  0.1482E+01  0.4563E+02  0.4548E+02
     -6.579  0.1431E+01  0.1531E+01  0.4590E+02  0.4576E+02
     -6.408  0.1815E+01  0.1926E+01  0.4622E+02  0.4600E+02
     -6.237  0.1459E+01  0.1591E+01  0.4650E+02  0.4630E+02
     -6.066  0.3574E+01  0.1295E+01  0.4692E+02  0.4655E+02
     -5.895  0.4010E+01  0.4189E+01  0.4745E+02  0.4700E+02
     -5.723  0.4309E+01  0.3417E+01  0.4818E+02  0.4755E+02
     -5.552  0.1542E+01  0.3945E+01  0.4862E+02  0.4823E+02
     -5.381  0.3465E+01  0.2255E+01  0.4912E+02  0.4864E+02
     -5.210  0.4342E+01  0.3208E+01  0.4977E+02  0.4916E+02
     -5.039  0.4168E+01  0.5905E+01  0.5082E+02  0.4978E+02
     -4.868  0.5148E+01  0.4124E+01  0.5151E+02  0.5076E+02
     -4.697  0.5629E+01  0.3685E+01  0.5236E+02  0.5132E+02
     -4.526  0.7767E+01  0.5203E+01  0.5317E+02  0.5216E+02
     -4.355  0.9426E+01  0.3106E+01  0.5497E+02  0.5269E+02
     -4.183  0.1339E+02  0.1158E+02  0.5645E+02  0.5348E+02
     -4.012  0.2068E+02  0.7797E+01  0.5908E+02  0.5530E+02
     -3.841  0.3508E+02  0.6436E+01  0.6292E+02  0.5631E+02
     -3.670  0.6660E+02  0.7525E+01  0.6826E+02  0.5761E+02
     -3.499  0.5173E+02  0.7735E+01  0.7466E+02  0.5863E+02
     -3.328  0.6417E+02  0.1350E+02  0.8117E+02  0.6081E+02
     -3.157  0.1003E+03  0.2184E+02  0.9117E+02  0.6357E+02
     -2.986  0.6247E+02  0.1879E+02  0.9893E+02  0.6669E+02
     -2.815  0.6199E+02  0.3373E+02  0.1052E+03  0.7079E+02
     -2.643  0.1189E+03  0.1784E+02  0.1148E+03  0.7381E+02
     -2.472  0.1510E+03  0.4769E+02  0.1283E+03  0.7763E+02
     -2.301  0.1364E+03  0.4829E+02  0.1409E+03  0.8258E+02
     -2.130  0.1219E+03  0.4875E+02  0.1525E+03  0.8793E+02
     -1.959  0.1404E+03  0.7104E+02  0.1643E+03  0.9329E+02
     -1.788  0.9779E+02  0.5180E+02  0.1752E+03  0.9994E+02
     -1.617  0.8624E+02  0.6040E+02  0.1871E+03  0.1053E+03
     -1.446  0.1345E+03  0.7925E+02  0.1990E+03  0.1125E+03
     -1.275  0.1190E+03  0.9846E+02  0.2098E+03  0.1221E+03
     -1.103  0.7782E+02  0.7100E+02  0.2179E+03  0.1305E+03
     -0.932  0.9389E+02  0.9683E+02  0.2263E+03  0.1390E+03
     -0.761  0.8826E+02  0.9405E+02  0.2359E+03  0.1478E+03
     -0.590  0.1603E+03  0.1142E+03  0.2480E+03  0.1580E+03
     -0.419  0.2764E+03  0.1277E+03  0.2633E+03  0.1694E+03
     -0.248  0.1843E+03  0.1186E+03  0.2798E+03  0.1802E+03
     -0.077  0.1319E+03  0.1277E+03  0.2924E+03  0.1909E+03
      0.094  0.1137E+03  0.9559E+02  0.3022E+03  0.1992E+03
      0.265  0.7276E+02  0.8232E+02  0.3097E+03  0.2062E+03
      0.437  0.7045E+02  0.5726E+02  0.3170E+03  0.2122E+03
      0.608  0.5903E+02  0.3148E+02  0.3232E+03  0.2171E+03
      0.779  0.4941E+02  0.4506E+02  0.3295E+03  0.2215E+03
      0.950  0.4024E+02  0.6358E+02  0.3342E+03  0.2281E+03
      1.121  0.3556E+02  0.7852E+02  0.3388E+03  0.2357E+03
      1.292  0.6085E+02  0.1020E+03  0.3443E+03  0.2447E+03
      1.463  0.9260E+02  0.1138E+03  0.3506E+03  0.2542E+03
      1.634  0.5313E+02  0.1167E+03  0.3567E+03  0.2651E+03
      1.805  0.5917E+02  0.1210E+03  0.3626E+03  0.2775E+03
      1.977  0.4789E+02  0.1207E+03  0.3688E+03  0.2895E+03
      2.148  0.1891E+02  0.1656E+03  0.3720E+03  0.3036E+03
      2.319  0.0000E+00  0.1891E+03  0.3720E+03  0.3193E+03
      2.490  0.0000E+00  0.2065E+03  0.3720E+03  0.3364E+03
      2.661  0.0000E+00  0.1388E+03  0.3720E+03  0.3507E+03
      2.832  0.0000E+00  0.1037E+03  0.3720E+03  0.3612E+03
      3.003  0.0000E+00  0.5335E+02  0.3720E+03  0.3679E+03
      3.174  0.0000E+00  0.2047E+02  0.3720E+03  0.3717E+03
      3.345  0.0000E+00  0.3653E+00  0.3720E+03  0.3720E+03
      3.517  0.0000E+00  0.0000E+00  0.3720E+03  0.3720E+03
      3.688  0.0000E+00  0.0000E+00  0.3720E+03  0.3720E+03
      3.859  0.0000E+00  0.0000E+00  0.3720E+03  0.3720E+03
      4.030  0.0000E+00  0.0000E+00  0.3720E+03  0.3720E+03
      4.201  0.0000E+00  0.0000E+00  0.3720E+03  0.3720E+03
      4.372  0.0000E+00  0.0000E+00  0.3720E+03  0.3720E+03
      4.543  0.0000E+00  0.0000E+00  0.3720E+03  0.3720E+03
      4.714  0.0000E+00  0.0000E+00  0.3720E+03  0.3720E+03
      4.886  0.0000E+00  0.0000E+00  0.3720E+03  0.3720E+03
      5.057  0.0000E+00  0.0000E+00  0.3720E+03  0.3720E+03
      5.228  0.0000E+00  0.0000E+00  0.3720E+03  0.3720E+03
      5.399  0.0000E+00  0.0000E+00  0.3720E+03  0.3720E+03
      5.570  0.0000E+00  0.0000E+00  0.3720E+03  0.3720E+03
