       N       E                     dE             d eps       ncg     rms          rms(c)
DAV:   1     0.551962616238E+04    0.55196E+04   -0.23778E+05 15792   0.143E+03
DAV:   2    -0.685338559359E+02   -0.55882E+04   -0.53851E+04 14880   0.417E+02
DAV:   3    -0.522647402285E+03   -0.45411E+03   -0.40186E+03 15324   0.162E+02
DAV:   4    -0.579049392593E+03   -0.56402E+02   -0.52837E+02 26008   0.445E+01
DAV:   5    -0.582124196211E+03   -0.30748E+01   -0.29220E+01 24392   0.105E+01    0.929E+01
DAV:   6    -0.725471082694E+03   -0.14335E+03   -0.31266E+02 27176   0.859E+01    0.151E+02
DAV:   7    -0.691123633934E+03    0.34347E+02   -0.36267E+02 27664   0.115E+02    0.148E+02
DAV:   8    -0.550580713885E+03    0.14054E+03   -0.18649E+02 27456   0.797E+01    0.896E+01
DAV:   9    -0.530252306835E+03    0.20328E+02   -0.66119E+01 25576   0.372E+01    0.683E+01
DAV:  10    -0.515702515773E+03    0.14550E+02   -0.45131E+01 24312   0.272E+01    0.611E+01
DAV:  11    -0.497082756833E+03    0.18620E+02   -0.67706E+01 21600   0.326E+01    0.473E+01
DAV:  12    -0.492288488021E+03    0.47943E+01   -0.35232E+01 20464   0.210E+01    0.365E+01
DAV:  13    -0.492483588901E+03   -0.19510E+00   -0.51902E+00 20888   0.886E+00    0.347E+01
DAV:  14    -0.492376862204E+03    0.10673E+00   -0.68629E-01 23192   0.254E+00    0.357E+01
DAV:  15    -0.493275879179E+03   -0.89902E+00   -0.34734E-01 26632   0.271E+00    0.362E+01
DAV:  16    -0.495510804035E+03   -0.22349E+01   -0.24342E+00 25968   0.620E+00    0.319E+01
DAV:  17    -0.498910119169E+03   -0.33993E+01   -0.47386E+00 24752   0.793E+00    0.264E+01
DAV:  18    -0.500350375935E+03   -0.14403E+01   -0.27800E+00 25024   0.710E+00    0.235E+01
DAV:  19    -0.501077108981E+03   -0.72673E+00   -0.13448E+00 23432   0.357E+00    0.216E+01
DAV:  20    -0.501465139869E+03   -0.38803E+00   -0.36354E-01 24728   0.204E+00    0.213E+01
DAV:  21    -0.501945929138E+03   -0.48079E+00   -0.62276E-01 25512   0.259E+00    0.198E+01
DAV:  22    -0.502680870719E+03   -0.73494E+00   -0.14446E+00 26024   0.507E+00    0.170E+01
DAV:  23    -0.502969923857E+03   -0.28905E+00   -0.11926E+00 25536   0.428E+00    0.151E+01
DAV:  24    -0.503023613646E+03   -0.53690E-01   -0.33111E-01 24680   0.218E+00    0.140E+01
DAV:  25    -0.503282451346E+03   -0.25884E+00   -0.51081E-01 26936   0.304E+00    0.127E+01
DAV:  26    -0.503621434596E+03   -0.33898E+00   -0.98103E-01 26320   0.351E+00    0.989E+00
DAV:  27    -0.503935930347E+03   -0.31450E+00   -0.14604E+00 24712   0.315E+00    0.785E+00
DAV:  28    -0.503998644905E+03   -0.62715E-01   -0.29061E-01 24824   0.209E+00    0.705E+00
DAV:  29    -0.504084545787E+03   -0.85901E-01   -0.19390E-01 25664   0.166E+00    0.595E+00
DAV:  30    -0.504183306241E+03   -0.98760E-01   -0.48097E-01 25720   0.199E+00    0.495E+00
DAV:  31    -0.504184053458E+03   -0.74722E-03   -0.16286E-01 23736   0.131E+00    0.429E+00
DAV:  32    -0.504171117996E+03    0.12935E-01   -0.47944E-02 24528   0.899E-01    0.338E+00
DAV:  33    -0.504168945857E+03    0.21721E-02   -0.70100E-02 25888   0.906E-01    0.256E+00
DAV:  34    -0.504169712646E+03   -0.76679E-03   -0.47705E-02 24688   0.618E-01    0.202E+00
DAV:  35    -0.504176695251E+03   -0.69826E-02   -0.17017E-02 25416   0.592E-01    0.168E+00
DAV:  36    -0.504180412005E+03   -0.37168E-02   -0.15718E-02 25664   0.494E-01    0.140E+00
DAV:  37    -0.504183061321E+03   -0.26493E-02   -0.15642E-02 23768   0.387E-01    0.113E+00
DAV:  38    -0.504183759452E+03   -0.69813E-03   -0.71125E-03 25224   0.322E-01    0.861E-01
DAV:  39    -0.504183454838E+03    0.30461E-03   -0.30048E-03 25008   0.211E-01    0.701E-01
DAV:  40    -0.504184199016E+03   -0.74418E-03   -0.22310E-03 25936   0.179E-01    0.598E-01
DAV:  41    -0.504185498847E+03   -0.12998E-02   -0.25521E-03 24624   0.176E-01    0.555E-01
DAV:  42    -0.504185938290E+03   -0.43944E-03   -0.24388E-03 25400   0.183E-01    0.438E-01
DAV:  43    -0.504186124896E+03   -0.18661E-03   -0.16591E-03 26136   0.133E-01    0.324E-01
DAV:  44    -0.504186019132E+03    0.10576E-03   -0.62270E-04 24584   0.774E-02    0.244E-01
DAV:  45    -0.504186269006E+03   -0.24987E-03   -0.54386E-04 25608   0.712E-02    0.186E-01
DAV:  46    -0.504186507342E+03   -0.23834E-03   -0.56554E-04 24496   0.693E-02    0.159E-01
DAV:  47    -0.504186640347E+03   -0.13301E-03   -0.23309E-04 23592   0.442E-02    0.131E-01
DAV:  48    -0.504186686714E+03   -0.46367E-04   -0.15341E-04 23800   0.438E-02    0.953E-02
DAV:  49    -0.504186667370E+03    0.19344E-04   -0.92290E-05 19440   0.317E-02    0.708E-02
DAV:  50    -0.504186665207E+03    0.21626E-05   -0.32284E-05 12640   0.184E-02
   1 F= -.50418667E+03 E0= -.50418667E+03  d E =0.000000E+00  mag=   106.1537
