 vasp.6.3.2 27Jun22 (build Mar 15 2023 15:45:48) complex                        
  
 executed on             LinuxIFC date 2025.02.10  23:36:51
 running on    4 total cores
 distrk:  each k-point on    4 cores,    1 groups
 distr:  one band on NCORE=   1 cores,    4 groups


--------------------------------------------------------------------------------------------------------


 INCAR:
   SYSTEM = ni3al
   PREC = Accurate
   EDIFF = 1E-5
   ISTART = 0
   ICHARG = 2
   LREAL = Auto
   NSW = 0
   ISIF = 2
   IBRION = -1
   ISMEAR = -5
   SIGMA = 0.1
   ENCUT = 450
   ALGO = Normal
   LMAXMIX = 4
   AMIN = 0.01
   NELM = 150
   LCHARG = .T.
   LWAVE = .T.
   ISPIN = 2
   NCORE = 4
   LELF = .T.
   LDIPOL = .TRUE.
   IDIPOL = 3
   AMIX = 0.05
   BMIX = 0.0001
   IMIX = 4

 POTCAR:    PAW_PBE Fe 06Sep2000                  
 POTCAR:    PAW_PBE Cr_pv 02Aug2007               
 POTCAR:    PAW_PBE Pb_d 06Sep2000                
 -----------------------------------------------------------------------------
|                                                                             |
|           W    W    AA    RRRRR   N    N  II  N    N   GGGG   !!!           |
|           W    W   A  A   R    R  NN   N  II  NN   N  G    G  !!!           |
|           W    W  A    A  R    R  N N  N  II  N N  N  G       !!!           |
|           W WW W  AAAAAA  RRRRR   N  N N  II  N  N N  G  GGG   !            |
|           WW  WW  A    A  R   R   N   NN  II  N   NN  G    G                |
|           W    W  A    A  R    R  N    N  II  N    N   GGGG   !!!           |
|                                                                             |
|     You use a magnetic or noncollinear calculation, but did not specify     |
|     the initial magnetic moment with the MAGMOM tag. Note that a            |
|     default of 1 will be used for all atoms. This ferromagnetic setup       |
|     may break the symmetry of the crystal, in particular it may rule        |
|     out finding an antiferromagnetic solution. Thence, we recommend         |
|     setting the initial magnetic moment manually or verifying carefully     |
|     that this magnetic setup is desired.                                    |
|                                                                             |
 -----------------------------------------------------------------------------

 POTCAR:    PAW_PBE Fe 06Sep2000                  
   VRHFIN =Fe:  d7 s1                                                                               
   LEXCH  = PE                                                                                      
   EATOM  =   594.3153 eV,   43.6809 Ry                                                             
                                                                                                    
   TITEL  = PAW_PBE Fe 06Sep2000                                                                    
   LULTRA =        F    use ultrasoft PP ?                                                          
   IUNSCR =        1    unscreen: 0-lin 1-nonlin 2-no                                               
   RPACOR =    2.000    partial core radius                                                         
   POMASS =   55.847; ZVAL   =    8.000    mass and valenz                                          
   RCORE  =    2.300    outmost cutoff radius                                                       
   RWIGS  =    2.460; RWIGS  =    1.302    wigner-seitz radius (au A)                               
   ENMAX  =  267.882; ENMIN  =  200.911 eV                                                          
   RCLOC  =    1.701    cutoff for local pot                                                        
   LCOR   =        T    correct aug charges                                                         
   LPAW   =        T    paw PP                                                                      
   EAUG   =  511.368                                                                                
   DEXC   =    0.000                                                                                
   RMAX   =    2.356    core radius for proj-oper                                                   
   RAUG   =    1.300    factor for augmentation sphere                                              
   RDEP   =    2.442    radius for radial grids                                                     
   RDEPT  =    1.890    core radius for aug-charge                                                  
                                                                                                    
   Atomic configuration                                                                             
    9 entries                                                                                       
     n  l   j            E        occ.                                                              
     1  0  0.50     -6993.8440   2.0000                                                             
     2  0  0.50      -814.6047   2.0000                                                             
     2  1  1.50      -693.3689   6.0000                                                             
     3  0  0.50       -89.4732   2.0000                                                             
     3  1  1.50       -55.6373   6.0000                                                             
     3  2  2.50        -3.8151   7.0000                                                             
     4  0  0.50        -4.2551   1.0000                                                             
     4  1  1.50        -3.4015   0.0000                                                             
     4  3  2.50        -1.3606   0.0000                                                             
   Description                                                                                      
     l       E           TYP  RCUT    TYP  RCUT                                                     
     2     -3.8151135     23  2.300                                                                 
     2     -5.1756961     23  2.300                                                                 
     0     -4.2550963     23  2.300                                                                 
     0      7.2035603     23  2.300                                                                 
     1     -2.7211652     23  2.300                                                                 
     1     18.4316424     23  2.300                                                                 
  local pseudopotential read in
  partial core-charges read in
  partial kinetic energy density read in
  atomic valenz-charges read in
  non local Contribution for L=           2  read in
    real space projection operators read in
  non local Contribution for L=           2  read in
    real space projection operators read in
  non local Contribution for L=           0  read in
    real space projection operators read in
  non local Contribution for L=           0  read in
    real space projection operators read in
  non local Contribution for L=           1  read in
    real space projection operators read in
  non local Contribution for L=           1  read in
    real space projection operators read in
    PAW grid and wavefunctions read in
 
   number of l-projection  operators is LMAX  =           6
   number of lm-projection operators is LMMAX =          18
 
 POTCAR:    PAW_PBE Cr_pv 02Aug2007               
   VRHFIN =Cr : p6d5s1                                                                              
   LEXCH  = PE                                                                                      
   EATOM  =  1647.9177 eV,  121.1185 Ry                                                             
                                                                                                    
   TITEL  = PAW_PBE Cr_pv 02Aug2007                                                                 
   LULTRA =        F    use ultrasoft PP ?                                                          
   IUNSCR =        1    unscreen: 0-lin 1-nonlin 2-no                                               
   RPACOR =    2.080    partial core radius                                                         
   POMASS =   51.996; ZVAL   =   12.000    mass and valenz                                          
   RCORE  =    2.300    outmost cutoff radius                                                       
   RWIGS  =    2.500; RWIGS  =    1.323    wigner-seitz radius (au A)                               
   ENMAX  =  265.681; ENMIN  =  199.261 eV                                                          
   ICORE  =        3    local potential                                                             
   LCOR   =        T    correct aug charges                                                         
   LPAW   =        T    paw PP                                                                      
   EAUG   =  519.424                                                                                
   DEXC   =    0.000                                                                                
   RMAX   =    2.356    core radius for proj-oper                                                   
   RAUG   =    1.300    factor for augmentation sphere                                              
   RDEP   =    2.447    radius for radial grids                                                     
   RDEPT  =    1.882    core radius for aug-charge                                                  
                                                                                                    
   Atomic configuration                                                                             
    8 entries                                                                                       
     n  l   j            E        occ.                                                              
     1  0  0.50     -5880.4963   2.0000                                                             
     2  0  0.50      -667.0865   2.0000                                                             
     2  1  1.50      -560.6250   6.0000                                                             
     3  0  0.50       -73.9860   2.0000                                                             
     3  1  1.50       -45.4378   6.0000                                                             
     3  2  2.50        -2.9137   5.0000                                                             
     4  0  0.50        -4.0071   1.0000                                                             
     4  3  2.50        -1.3606   0.0000                                                             
   Description                                                                                      
     l       E           TYP  RCUT    TYP  RCUT                                                     
     1    -45.4377911     23  2.000                                                                 
     1      1.3605826     23  2.000                                                                 
     2     -2.9136672     23  2.300                                                                 
     2     -4.2742498     23  2.300                                                                 
     0     -4.0071320     23  2.300                                                                 
     0      9.4498803     23  2.300                                                                 
     3      2.7211652     23  2.300                                                                 
  local pseudopotential read in
  partial core-charges read in
  partial kinetic energy density read in
  atomic valenz-charges read in
  non local Contribution for L=           1  read in
    real space projection operators read in
  non local Contribution for L=           1  read in
    real space projection operators read in
  non local Contribution for L=           2  read in
    real space projection operators read in
  non local Contribution for L=           2  read in
    real space projection operators read in
  non local Contribution for L=           0  read in
    real space projection operators read in
  non local Contribution for L=           0  read in
    real space projection operators read in
    PAW grid and wavefunctions read in
 
   number of l-projection  operators is LMAX  =           6
   number of lm-projection operators is LMMAX =          18
 
 POTCAR:    PAW_PBE Pb_d 06Sep2000                
   VRHFIN =Pb:                                                                                      
   LEXCH  = PE                                                                                      
   EATOM  =  1661.6185 eV,  122.1255 Ry                                                             
                                                                                                    
   TITEL  = PAW_PBE Pb_d 06Sep2000                                                                  
   LULTRA =        F    use ultrasoft PP ?                                                          
   IUNSCR =        1    unscreen: 0-lin 1-nonlin 2-no                                               
   RPACOR =    2.200    partial core radius                                                         
   POMASS =  207.200; ZVAL   =   14.000    mass and valenz                                          
   RCORE  =    2.500    outmost cutoff radius                                                       
   RWIGS  =    3.260; RWIGS  =    1.725    wigner-seitz radius (au A)                               
   ENMAX  =  237.835; ENMIN  =  178.376 eV                                                          
   ICORE  =        3    local potential                                                             
   LCOR   =        T    correct aug charges                                                         
   LPAW   =        T    paw PP                                                                      
   EAUG   =  391.914                                                                                
   DEXC   =    0.000                                                                                
   RMAX   =    2.565    core radius for proj-oper                                                   
   RAUG   =    1.300    factor for augmentation sphere                                              
   RDEP   =    2.643    radius for radial grids                                                     
   RDEPT  =    2.092    core radius for aug-charge                                                  
                                                                                                    
   Atomic configuration                                                                             
   16 entries                                                                                       
     n  l   j            E        occ.                                                              
     1  0  0.50    -88091.8466   2.0000                                                             
     2  0  0.50    -15753.4197   2.0000                                                             
     2  1  1.50    -13508.1797   6.0000                                                             
     3  0  0.50     -3781.7194   2.0000                                                             
     3  1  1.50     -3138.2529   6.0000                                                             
     3  2  2.50     -2483.2977  10.0000                                                             
     4  0  0.50      -856.2895   2.0000                                                             
     4  1  1.50      -645.4942   6.0000                                                             
     4  2  2.50      -401.8768  10.0000                                                             
     4  3  3.50      -132.9059  14.0000                                                             
     5  0  0.50      -144.0950   2.0000                                                             
     5  1  1.50       -85.7879   6.0000                                                             
     5  2  2.50       -21.1769  10.0000                                                             
     6  0  0.50       -12.0372   2.0000                                                             
     6  1  1.50        -3.4971   2.0000                                                             
     5  3  2.50        -2.7212   0.0000                                                             
   Description                                                                                      
     l       E           TYP  RCUT    TYP  RCUT                                                     
     2    -21.1768523     23  2.500                                                                 
     2      1.3605826     23  2.500                                                                 
     0    -12.0371562     23  2.500                                                                 
     0     13.6058260     23  2.500                                                                 
     1     -3.4971339     23  2.500                                                                 
     1     13.6058260     23  2.500                                                                 
     3     -1.3605826      7  2.500                                                                 
  local pseudopotential read in
  partial core-charges read in
  partial kinetic energy density read in
  atomic valenz-charges read in
  non local Contribution for L=           2  read in
    real space projection operators read in
  non local Contribution for L=           2  read in
    real space projection operators read in
  non local Contribution for L=           0  read in
    real space projection operators read in
  non local Contribution for L=           0  read in
    real space projection operators read in
  non local Contribution for L=           1  read in
    real space projection operators read in
  non local Contribution for L=           1  read in
    real space projection operators read in
    PAW grid and wavefunctions read in
 
   number of l-projection  operators is LMAX  =           6
   number of lm-projection operators is LMMAX =          18
 
 Optimization of the real space projectors (new method)

 maximal supplied QI-value         = 16.25
 optimisation between [QCUT,QGAM] = [ 10.73, 21.61] = [ 32.22,130.83] Ry 
 Optimized for a Real-space Cutoff    1.42 Angstroem

   l    n(q)    QCUT    max X(q) W(low)/X(q) W(high)/X(q)  e(spline) 
   2      8    10.726    80.901    0.24E-03    0.41E-03    0.22E-06
   2      8    10.726    75.754    0.24E-03    0.41E-03    0.23E-06
   0      9    10.726    58.752    0.21E-03    0.17E-03    0.42E-07
   0      9    10.726    30.679    0.19E-03    0.16E-03    0.39E-07
   1      9    10.726    17.977    0.20E-03    0.14E-03    0.16E-06
   1      9    10.726    13.559    0.17E-03    0.11E-03    0.13E-06
 Optimization of the real space projectors (new method)

 maximal supplied QI-value         = 16.25
 optimisation between [QCUT,QGAM] = [ 10.73, 21.61] = [ 32.22,130.83] Ry 
 Optimized for a Real-space Cutoff    1.51 Angstroem

   l    n(q)    QCUT    max X(q) W(low)/X(q) W(high)/X(q)  e(spline) 
   1      9    10.726     3.262    0.86E-04    0.42E-04    0.11E-06
   1      9    10.726     5.741    0.19E-03    0.70E-04    0.20E-06
   2      9    10.726    60.438    0.11E-03    0.51E-04    0.13E-06
   2      9    10.726    55.380    0.12E-03    0.51E-04    0.13E-06
   0     10    10.726    80.273    0.42E-04    0.15E-05    0.77E-07
   0     10    10.726    36.654    0.34E-04    0.84E-06    0.69E-07
 Optimization of the real space projectors (new method)

 maximal supplied QI-value         = 15.12
 optimisation between [QCUT,QGAM] = [ 10.73, 21.62] = [ 32.26,130.87] Ry 
 Optimized for a Real-space Cutoff    1.42 Angstroem

   l    n(q)    QCUT    max X(q) W(low)/X(q) W(high)/X(q)  e(spline) 
   2      8    10.734     3.846    0.11E-03    0.12E-04    0.36E-07
   2      8    10.734     8.593    0.24E-03    0.21E-03    0.13E-06
   0      9    10.734    20.082    0.65E-04    0.10E-03    0.71E-07
   0      9    10.734     8.597    0.91E-04    0.14E-03    0.10E-06
   1      9    10.734    33.223    0.24E-03    0.75E-04    0.13E-06
   1      9    10.734    15.899    0.21E-03    0.70E-04    0.12E-06
  PAW_PBE Fe 06Sep2000                  :
 energy of atom  1       EATOM= -594.3153
 kinetic energy error for atom=    0.0034 (will be added to EATOM!!)
  PAW_PBE Cr_pv 02Aug2007               :
 energy of atom  2       EATOM=-1647.9177
 kinetic energy error for atom=    0.0115 (will be added to EATOM!!)
  PAW_PBE Pb_d 06Sep2000                :
 energy of atom  3       EATOM=-1661.6185
 kinetic energy error for atom=    0.0063 (will be added to EATOM!!)
 
 
 POSCAR: Generated by VASPKIT code
  positions in direct lattice
  velocities in cartesian coordinates
 exchange correlation table for  LEXCH =        8
   RHO(1)=    0.500       N(1)  =     2000
   RHO(2)=  100.500       N(2)  =     4000

 VTST: version 4.2, (08/11/21)

 CHAIN: initializing optimizer
 
 OPT: Using VASP Dynamics algorithm
 CHAIN: Read ICHAIN            0
 
 POSCAR: Generated by VASPKIT code
  positions in direct lattice
  velocities in cartesian coordinates
 


--------------------------------------------------------------------------------------------------------


 ion  position               nearest neighbor table
   1  0.001  1.000  0.243-  49 2.45  39 2.45  45 2.46   2 2.46  36 2.47  13 2.47   5 2.50  11 2.50
                            15 2.81  52 2.83   4 2.84  35 2.84   6 2.85  50 2.86
   2  0.166  0.166  0.304-  22 2.40  15 2.43  18 2.44  58 2.46   1 2.46  50 2.47   8 2.48   6 2.48
                            11 2.82   7 2.85   5 2.85  36 2.86   3 2.92
   3  0.508  0.172  0.304-  18 2.40  51 2.41  56 2.44  58 2.45   4 2.46   8 2.48  50 2.52   9 2.76
                             5 2.76  38 2.86  53 2.86   2 2.92
   4  0.668  0.001  0.243-  39 2.44  38 2.45  49 2.45   3 2.46  47 2.46  53 2.47   5 2.47  13 2.48
                            54 2.78  56 2.82  51 2.82  60 2.84   1 2.84  50 2.84
   5  0.832  0.174  0.303-  15 2.38  51 2.41  22 2.42   6 2.44   4 2.47  56 2.48   1 2.50  10 2.74
                             3 2.76  39 2.83   2 2.85  13 2.90
   6  0.000  0.335  0.242-   5 2.44  36 2.46  39 2.46  40 2.46  10 2.46  43 2.47   7 2.48   2 2.48
                            22 2.80  52 2.82  61 2.83  51 2.84   1 2.85   8 2.85
   7  0.166  0.501  0.304-  22 2.41  27 2.41  30 2.42  58 2.45  52 2.46  12 2.47   6 2.48   8 2.49
                            11 2.83   2 2.85  40 2.88  10 2.90   9 2.90
   8  0.335  0.333  0.243-  40 2.45  38 2.45  36 2.46  41 2.46   9 2.46   3 2.48   2 2.48   7 2.49
                            12 2.83  62 2.83  58 2.84  50 2.84  51 2.84   6 2.85
   9  0.507  0.497  0.302-  30 2.38  51 2.42  33 2.44  54 2.45   8 2.46  58 2.49  12 2.49  10 2.74
                             3 2.76  41 2.81  53 2.88   7 2.90
  10  0.827  0.497  0.302-  27 2.38  51 2.41   6 2.46  54 2.47  22 2.48  33 2.48  52 2.53   9 2.74
                             5 2.74  43 2.82  13 2.85   7 2.90
  11  0.168  0.834  0.306-  50 2.49  27 2.49  52 2.50  15 2.50   1 2.50  12 2.51  30 2.51  18 2.52
                            53 2.80   2 2.82   7 2.83  13 2.84  45 2.92  63 3.06
  12  0.333  0.666  0.243-  53 2.44  41 2.45  40 2.45  45 2.46  47 2.47   7 2.47   9 2.49  11 2.51
                            52 2.81  30 2.81   8 2.83  50 2.83  54 2.83  46 2.84
  13  0.835  0.832  0.304-  27 2.39  33 2.42  15 2.42  56 2.43  54 2.44   1 2.47  52 2.48   4 2.48
                            11 2.84  49 2.85  10 2.85  53 2.90   5 2.90
  14  0.001  0.001  0.002-  20 2.46  34 2.46  28 2.46  16 2.48  26 2.83  21 2.83  35 2.84  17 2.85
                            55 2.85
  15  0.989  0.010  0.362-   5 2.38  13 2.42   2 2.43  11 2.50  56 2.74  22 2.74  63 2.77   1 2.81
                            27 2.99  18 3.03
  16  0.168  0.170  0.063-  62 2.44  37 2.45  57 2.45  17 2.46  35 2.46  61 2.46  21 2.46  14 2.48
                            23 2.80  36 2.82  28 2.85  20 2.86  19 2.87
  17  0.335  0.003  0.003-  19 2.45  16 2.46  31 2.46  28 2.46  57 2.81  37 2.82  55 2.83  14 2.85
                            29 2.86
  18  0.344  0.013  0.363-   3 2.40   2 2.44  53 2.45  11 2.52  58 2.72  63 2.75  56 2.77  50 2.82
                            15 3.03  30 3.04
  19  0.505  0.169  0.061-  59 2.43  42 2.45  17 2.45  60 2.46  62 2.47  55 2.47  57 2.48  37 2.48
                            20 2.80  24 2.81  31 2.83  38 2.87  16 2.87
  20  0.833  0.167  0.062-  59 2.43  14 2.46  60 2.46  42 2.46  21 2.46  61 2.46  35 2.46  55 2.50
                            19 2.80  34 2.81  25 2.85  39 2.85  16 2.86
  21  0.000  0.335  0.002-  23 2.46  25 2.46  20 2.46  16 2.46  59 2.81  26 2.83  14 2.83  57 2.83
                            61 2.84
  22  0.003  0.332  0.361-   2 2.40   7 2.41   5 2.42  10 2.48  15 2.74  27 2.77   6 2.80  58 2.83

  23  0.168  0.499  0.063-  61 2.45  21 2.46  57 2.46  46 2.46  44 2.46  62 2.47  29 2.47  26 2.48
                            16 2.80  40 2.82  24 2.85  25 2.85  28 2.85
  24  0.501  0.499  0.062-  59 2.43  42 2.45  62 2.45  29 2.46  46 2.46  32 2.47  57 2.47  48 2.47
                            19 2.81  25 2.84  23 2.85  41 2.86  31 2.86
  25  0.834  0.502  0.062-  59 2.42  61 2.45  32 2.45  44 2.46  48 2.46  26 2.46  21 2.46  42 2.46
                            34 2.83  24 2.84  43 2.84  23 2.85  20 2.85
  26  0.001  0.668  0.002-  25 2.46  28 2.46  23 2.48  34 2.48  21 2.83  14 2.83  29 2.84  44 2.85
                            32 2.85
  27  0.989  0.658  0.360-  10 2.38  13 2.39   7 2.41  11 2.49  22 2.77  63 2.78  33 2.79  52 2.79
                            15 2.99  30 3.04
  28  0.168  0.835  0.062-  35 2.45  37 2.46  44 2.46  46 2.46  17 2.46  29 2.46  26 2.46  14 2.46
                            45 2.83  16 2.85  31 2.85  23 2.85  34 2.86
  29  0.334  0.667  0.002-  24 2.46  28 2.46  23 2.47  31 2.47  57 2.83  46 2.83  32 2.84  26 2.84
                            17 2.86
  30  0.345  0.655  0.362-   9 2.38   7 2.42  53 2.45  11 2.51  33 2.72  58 2.74  63 2.76  12 2.81
                            27 3.04  18 3.04
  31  0.502  0.836  0.062-  60 2.44  55 2.45  37 2.45  17 2.46  48 2.46  32 2.47  46 2.47  29 2.47
                            34 2.83  19 2.83  47 2.85  28 2.85  24 2.86
  32  0.668  0.667  0.002-  25 2.45  24 2.47  31 2.47  34 2.47  55 2.80  59 2.81  29 2.84  26 2.85
                            48 2.85
  33  0.663  0.673  0.361-  13 2.42  53 2.44   9 2.44  10 2.48  30 2.72  56 2.77  54 2.78  27 2.79

  34  0.833  0.836  0.062-  60 2.44  35 2.46  48 2.46  14 2.46  55 2.46  32 2.47  44 2.47  26 2.48
                            20 2.81  31 2.83  25 2.83  49 2.85  28 2.86
  35  0.001  0.001  0.122-  28 2.45  34 2.46  36 2.46  39 2.46  45 2.46  16 2.46  20 2.46  49 2.47
                            44 2.83  14 2.84  61 2.84   1 2.84  37 2.85  60 2.85
  36  0.167  0.168  0.182-  35 2.46   8 2.46   6 2.46  62 2.46  37 2.46   1 2.47  61 2.47  50 2.49
                            40 2.81  16 2.82  45 2.83  39 2.84  38 2.86   2 2.86
  37  0.335  0.002  0.122-  16 2.45  31 2.45  28 2.46  38 2.46  45 2.46  47 2.46  36 2.46  19 2.48
                            62 2.81  17 2.82  60 2.84  35 2.85  46 2.85  50 2.87
  38  0.502  0.167  0.183-  62 2.44  51 2.44   4 2.45   8 2.45  60 2.46  42 2.46  37 2.46  50 2.47
                            47 2.82  41 2.84  39 2.84  36 2.86   3 2.86  19 2.87
  39  0.834  0.166  0.183-  51 2.44   4 2.44   1 2.45   6 2.46  61 2.46  35 2.46  60 2.46  42 2.47
                            49 2.82   5 2.83  38 2.84  36 2.84  20 2.85  43 2.86
  40  0.170  0.499  0.182-  62 2.45  12 2.45   8 2.45  46 2.45   6 2.46  52 2.46  61 2.46  44 2.47
                            36 2.81  23 2.82  41 2.84  45 2.86   7 2.88  43 2.89
  41  0.502  0.501  0.183-  51 2.45  12 2.45   8 2.46  48 2.46  42 2.46  62 2.47  54 2.47  46 2.47
                             9 2.81  43 2.81  38 2.84  40 2.84  47 2.84  24 2.86
  42  0.667  0.334  0.122-  19 2.45  24 2.45  38 2.46  20 2.46  43 2.46  41 2.46  25 2.46  39 2.47
                            59 2.81  61 2.82  62 2.82  51 2.83  60 2.84  48 2.84
  43  0.831  0.503  0.183-  48 2.44  51 2.45  42 2.46   6 2.47  61 2.47  44 2.47  52 2.47  54 2.48
                            41 2.81  49 2.82  10 2.82  25 2.84  39 2.86  40 2.89
  44  0.001  0.668  0.123-  25 2.46  49 2.46  28 2.46  45 2.46  23 2.46  43 2.47  40 2.47  34 2.47
                            52 2.82  61 2.83  35 2.83  46 2.84  26 2.85  48 2.85
  45  0.169  0.835  0.182-  52 2.45  50 2.46   1 2.46  46 2.46  35 2.46  37 2.46  12 2.46  44 2.46
                            47 2.82  36 2.83  28 2.83  49 2.85  40 2.86  11 2.92
  46  0.334  0.667  0.122-  40 2.45  23 2.46  28 2.46  45 2.46  24 2.46  47 2.46  31 2.47  41 2.47
                            29 2.83  48 2.84  12 2.84  44 2.84  62 2.84  37 2.85
  47  0.500  0.835  0.183-  54 2.43  50 2.44  60 2.45   4 2.46  37 2.46  48 2.46  46 2.46  12 2.47
                            53 2.81  38 2.82  45 2.82  41 2.84  31 2.85  49 2.86
  48  0.667  0.668  0.123-  43 2.44  25 2.46  31 2.46  41 2.46  34 2.46  49 2.46  47 2.46  24 2.47
                            60 2.82  46 2.84  42 2.84  54 2.85  32 2.85  44 2.85
  49  0.835  0.834  0.183-   1 2.45  54 2.45   4 2.45  44 2.46  52 2.46  48 2.46  60 2.46  35 2.47
                            43 2.82  39 2.82  34 2.85  45 2.85  13 2.85  47 2.86
  50  0.336  0.999  0.244-  53 2.38  47 2.44  45 2.46   2 2.47  38 2.47  11 2.49  36 2.49   3 2.52
                            18 2.82  12 2.83   4 2.84   8 2.84   1 2.86  37 2.87
  51  0.668  0.333  0.242-  10 2.41   3 2.41   5 2.41   9 2.42  38 2.44  39 2.44  41 2.45  43 2.45
                             4 2.82  42 2.83   6 2.84   8 2.84  54 2.90
  52  0.004  0.667  0.242-  45 2.45  40 2.46  49 2.46   7 2.46  43 2.47  13 2.48  11 2.50  10 2.53
                            27 2.79  12 2.81  44 2.82   6 2.82   1 2.83  54 2.90
  53  0.496  0.836  0.302-  50 2.38  54 2.43  33 2.44  12 2.44  30 2.45  18 2.45   4 2.47  56 2.48
                            11 2.80  47 2.81   3 2.86   9 2.88  13 2.90
  54  0.665  0.674  0.243-  53 2.43  47 2.43  13 2.44  49 2.45   9 2.45  41 2.47  10 2.47  43 2.48
                             4 2.78  33 2.78  12 2.83  48 2.85  52 2.90  51 2.90
  55  0.666  0.997  0.000-  31 2.45  34 2.46  19 2.47  20 2.50  32 2.80  17 2.83  14 2.85  60 2.89
                            59 2.89
  56  0.669  0.999  0.362-  13 2.43   3 2.44   5 2.48  53 2.48  15 2.74  33 2.77  18 2.77   4 2.82

  57  0.332  0.334  0.001-  16 2.45  23 2.46  24 2.47  19 2.48  17 2.81  29 2.83  21 2.83  62 2.86
                            59 2.89
  58  0.335  0.333  0.363-   3 2.45   7 2.45   2 2.46   9 2.49  18 2.72  30 2.74  22 2.83   8 2.84

  59  0.670  0.337  0.003-  25 2.42  19 2.43  24 2.43  20 2.43  32 2.81  42 2.81  21 2.81  57 2.89
                            55 2.89
  60  0.667  1.000  0.122-  34 2.44  31 2.44  47 2.45  38 2.46  20 2.46  39 2.46  19 2.46  49 2.46
                            48 2.82   4 2.84  42 2.84  37 2.84  35 2.85  55 2.89
  61  0.998  0.335  0.122-  25 2.45  23 2.45  39 2.46  40 2.46  20 2.46  16 2.46  43 2.47  36 2.47
                            42 2.82  44 2.83   6 2.83  21 2.84  35 2.84  62 2.89
  62  0.337  0.332  0.123-  38 2.44  16 2.44  40 2.45  24 2.45  36 2.46  41 2.47  23 2.47  19 2.47
                            37 2.81  42 2.82   8 2.83  46 2.84  57 2.86  61 2.89
  63  0.168  0.833  0.436-  18 2.75  30 2.76  15 2.77  27 2.78  11 3.06
 
  Warning from LATTYP: Monoclinic adjustment (A1->A3, A2->A1, A3->A2)!
  LATTYP: Found a simple monoclinic cell.
 ALAT       =     8.4969997406
 B/A-ratio  =     2.7768624260
 C/A-ratio  =     1.0042014647
 COS(beta)  =    -0.0000611195
  
  Lattice vectors:
  
 A1 = (  -0.0005193328,   8.4969997247,   0.0000000000)
 A2 = (   0.0000000000,   0.0000000000,  23.5949993134)
 A3 = (   8.5326995850,   0.0000000000,   0.0000000000)


Analysis of symmetry for initial positions (statically):
=====================================================================
 Subroutine PRICEL returns:
 Original cell was already a primitive cell.
 

 Routine SETGRP: Setting up the symmetry group for a 
 simple monoclinic supercell.


 Subroutine GETGRP returns: Found  1 space group operations
 (whereof  1 operations were pure point group operations)
 out of a pool of  4 trial point group operations.


The static configuration has the point symmetry C_1 .


Analysis of symmetry for dynamics (positions and initial velocities):
=====================================================================
 Subroutine PRICEL returns:
 Original cell was already a primitive cell.
 

 Routine SETGRP: Setting up the symmetry group for a 
 simple monoclinic supercell.


 Subroutine GETGRP returns: Found  1 space group operations
 (whereof  1 operations were pure point group operations)
 out of a pool of  4 trial point group operations.


The dynamic configuration has the point symmetry C_1 .


Analysis of constrained symmetry for selective dynamics:
=====================================================================
 Subroutine PRICEL returns:
 Original cell was already a primitive cell.
 

 Routine SETGRP: Setting up the symmetry group for a 
 simple monoclinic supercell.


 Subroutine GETGRP returns: Found  1 space group operations
 (whereof  1 operations were pure point group operations)
 out of a pool of  4 trial point group operations.


The constrained configuration has the point symmetry C_1 .


Analysis of structural, dynamic, and magnetic symmetry:
=====================================================================
 Subroutine PRICEL returns:
 Original cell was already a primitive cell.
 

 Routine SETGRP: Setting up the symmetry group for a 
 simple monoclinic supercell.


 Subroutine GETGRP returns: Found  1 space group operations
 (whereof  1 operations were pure point group operations)
 out of a pool of  4 trial point group operations.


The overall configuration has the point symmetry C_1 .


 Subroutine INISYM returns: Found  1 space group operations
 (whereof  1 operations are pure point group operations),
 and found     1 'primitive' translations


----------------------------------------------------------------------------------------

                                     Primitive cell                                     

  volume of cell :    1710.6928

  direct lattice vectors                    reciprocal lattice vectors
     8.532699585  0.000000000  0.000000000     0.117196204  0.000007163  0.000000000
    -0.000519333  8.496999725  0.000000000     0.000000000  0.117688600  0.000000000
     0.000000000  0.000000000 23.594999313     0.000000000  0.000000000  0.042381862

  length of vectors
     8.532699585  8.496999741 23.594999313     0.117196204  0.117688600  0.042381862

  position of ions in fractional coordinates (direct lattice)
     0.000860000  0.999930000  0.242710000
     0.166226236  0.165669451  0.303681660
     0.508372512  0.172382268  0.303663825
     0.668220000  0.001070000  0.242720000
     0.832330637  0.173757493  0.302688552
     0.000440000  0.334970000  0.242400000
     0.166474449  0.500884674  0.304313166
     0.334690000  0.333050000  0.242670000
     0.506544688  0.497193015  0.302060789
     0.827244341  0.496533230  0.302280937
     0.167720846  0.834106872  0.306172848
     0.333420000  0.665550000  0.242610000
     0.835310563  0.832298507  0.303795479
     0.000640000  0.001190000  0.001990000
     0.989451448  0.009866828  0.361540957
     0.168430000  0.169620000  0.062690000
     0.334600000  0.002970000  0.002540000
     0.343955368  0.012501400  0.362738288
     0.504630000  0.168500000  0.061200000
     0.832720000  0.166700000  0.061930000
     0.000040000  0.334670000  0.002130000
     0.003407752  0.332074151  0.361134798
     0.167570000  0.498950000  0.062680000
     0.500990000  0.498960000  0.062060000
     0.833930000  0.502340000  0.062350000
     0.001210000  0.667850000  0.001880000
     0.989115977  0.657513539  0.360375807
     0.167920000  0.834620000  0.062280000
     0.334370000  0.666640000  0.002250000
     0.344885991  0.655187015  0.361606063
     0.501520000  0.835630000  0.062170000
     0.667530000  0.667050000  0.001750000
     0.662722892  0.672646081  0.361273475
     0.832930000  0.835840000  0.062350000
     0.001210000  0.000980000  0.122250000
     0.167000000  0.168110000  0.182390000
     0.334700000  0.002270000  0.121920000
     0.501740000  0.167160000  0.182630000
     0.834210000  0.166390000  0.182830000
     0.169640000  0.498680000  0.182090000
     0.502190000  0.500810000  0.183170000
     0.667410000  0.333950000  0.122330000
     0.831340000  0.502530000  0.182830000
     0.001320000  0.667950000  0.122530000
     0.168980000  0.835090000  0.182430000
     0.334460000  0.667030000  0.122230000
     0.499710000  0.835380000  0.182780000
     0.666980000  0.668400000  0.122590000
     0.834880000  0.834030000  0.182940000
     0.335580000  0.998630000  0.243530000
     0.668010000  0.332620000  0.242290000
     0.004480000  0.667390000  0.242170000
     0.495531061  0.835565634  0.301657252
     0.665210000  0.673510000  0.243270000
     0.666200000  0.996800000  0.000000000
     0.668539730  0.998769105  0.362087268
     0.332130000  0.333860000  0.001350000
     0.334527139  0.332654673  0.363071993
     0.670400000  0.336730000  0.003210000
     0.667280000  0.999980000  0.122460000
     0.998060000  0.334950000  0.122350000
     0.336750000  0.332380000  0.122610000
     0.167906610  0.832724614  0.435853112

  ion indices of the primitive-cell ions
   primitive index   ion index
                 1           1
                 2           2
                 3           3
                 4           4
                 5           5
                 6           6
                 7           7
                 8           8
                 9           9
                10          10
                11          11
                12          12
                13          13
                14          14
                15          15
                16          16
                17          17
                18          18
                19          19
                20          20
                21          21
                22          22
                23          23
                24          24
                25          25
                26          26
                27          27
                28          28
                29          29
                30          30
                31          31
                32          32
                33          33
                34          34
                35          35
                36          36
                37          37
                38          38
                39          39
                40          40
                41          41
                42          42
                43          43
                44          44
                45          45
                46          46
                47          47
                48          48
                49          49
                50          50
                51          51
                52          52
                53          53
                54          54
                55          55
                56          56
                57          57
                58          58
                59          59
                60          60
                61          61
                62          62
                63          63

----------------------------------------------------------------------------------------

 
 
 KPOINTS: K-Spacing Value to Generate K-Mesh: 0.03

Automatic generation of k-mesh.
 Grid dimensions read from file:
 generate k-points for:    4    4    1

 Generating k-lattice:

  Cartesian coordinates                     Fractional coordinates (reciprocal lattice)
     0.029299051  0.000001791  0.000000000     0.250000000  0.000000000  0.000000000
     0.000000000  0.029422150  0.000000000     0.000000000  0.250000000  0.000000000
     0.000000000  0.000000000  0.042381862     0.000000000  0.000000000  1.000000000

  Length of vectors
     0.029299051  0.029422150  0.042381862

  Shift w.r.t. Gamma in fractional coordinates (k-lattice)
     0.000000000  0.000000000  0.000000000

 TETIRR: Found     48 inequivalent tetrahedra from       96
 
 Subroutine IBZKPT returns following result:
 ===========================================
 
 Found     10 irreducible k-points:
 
 Following reciprocal coordinates:
            Coordinates               Weight
  0.000000  0.000000  0.000000      1.000000
  0.250000  0.000000  0.000000      2.000000
  0.500000  0.000000  0.000000      1.000000
  0.000000  0.250000  0.000000      2.000000
  0.250000  0.250000  0.000000      2.000000
  0.500000  0.250000  0.000000      2.000000
 -0.250000  0.250000  0.000000      2.000000
  0.000000  0.500000  0.000000      1.000000
  0.250000  0.500000  0.000000      2.000000
  0.500000  0.500000  0.000000      1.000000
 
 Following cartesian coordinates:
            Coordinates               Weight
  0.000000  0.000000  0.000000      1.000000
  0.029299  0.000002  0.000000      2.000000
  0.058598  0.000004  0.000000      1.000000
  0.000000  0.029422  0.000000      2.000000
  0.029299  0.029424  0.000000      2.000000
  0.058598  0.029426  0.000000      2.000000
 -0.029299  0.029420  0.000000      2.000000
  0.000000  0.058844  0.000000      1.000000
  0.029299  0.058846  0.000000      2.000000
  0.058598  0.058848  0.000000      1.000000
 


--------------------------------------------------------------------------------------------------------




 Dimension of arrays:
   k-points           NKPTS =     10   k-points in BZ     NKDIM =     10   number of bands    NBANDS=    372
   number of dos      NEDOS =    301   number of ions     NIONS =     63
   non local maximal  LDIM  =      6   non local SUM 2l+1 LMDIM =     18
   total plane-waves  NPLWV = 604800
   max r-space proj   IRMAX =   5137   max aug-charges    IRDMAX=  18968
   dimension x,y,z NGX =    60 NGY =   60 NGZ =  168
   dimension x,y,z NGXF=   120 NGYF=  120 NGZF=  336
   support grid    NGXF=   120 NGYF=  120 NGZF=  336
   ions per type =              49  13   1
   NGX,Y,Z   is equivalent  to a cutoff of  11.69, 11.74, 11.84 a.u.
   NGXF,Y,Z  is equivalent  to a cutoff of  23.38, 23.48, 23.67 a.u.

 SYSTEM =  ni3al                                   
 POSCAR =  Generated by VASPKIT code               

 Startparameter for this run:
   NWRITE =      2    write-flag & timer
   PREC   = accura    normal or accurate (medium, high low for compatibility)
   ISTART =      0    job   : 0-new  1-cont  2-samecut
   ICHARG =      2    charge: 1-file 2-atom 10-const
   ISPIN  =      2    spin polarized calculation?
   LNONCOLLINEAR =      F non collinear calculations
   LSORBIT =      F    spin-orbit coupling
   INIWAV =      1    electr: 0-lowe 1-rand  2-diag
   LASPH  =      F    aspherical Exc in radial PAW
 Electronic Relaxation 1
   ENCUT  =  450.0 eV  33.07 Ry    5.75 a.u.  14.76 14.70 40.81*2*pi/ulx,y,z
   ENINI  =  450.0     initial cutoff
   ENAUG  =  519.4 eV  augmentation charge cutoff
   NELM   =    150;   NELMIN=  2; NELMDL= -5     # of ELM steps 
   EDIFF  = 0.1E-04   stopping-criterion for ELM
   LREAL  =      T    real-space projection
   NLSPLINE    = F    spline interpolate recip. space projectors
   LCOMPAT=      F    compatible to vasp.4.4
   GGA_COMPAT  = T    GGA compatible to vasp.4.4-vasp.4.6
   LMAXPAW     = -100 max onsite density
   LMAXMIX     =    4 max onsite mixed and CHGCAR
   VOSKOWN=      0    Vosko Wilk Nusair interpolation
   ROPT   =   -0.00025  -0.00025  -0.00025
 Ionic relaxation
   EDIFFG = 0.1E-03   stopping-criterion for IOM
   NSW    =      0    number of steps for IOM
   NBLOCK =      1;   KBLOCK =      1    inner block; outer block 
   IBRION =     -1    ionic relax: 0-MD 1-quasi-New 2-CG
   NFREE  =      0    steps in history (QN), initial steepest desc. (CG)
   ISIF   =      2    stress and relaxation
   IWAVPR =     10    prediction:  0-non 1-charg 2-wave 3-comb
   ISYM   =      2    0-nonsym 1-usesym 2-fastsym
   LCORR  =      T    Harris-Foulkes like correction to forces

   POTIM  = 0.5000    time-step for ionic-motion
   TEIN   =    0.0    initial temperature
   TEBEG  =    0.0;   TEEND  =   0.0 temperature during run
   SMASS  =  -3.00    Nose mass-parameter (am)
   estimated Nose-frequenzy (Omega)   =  0.10E-29 period in steps = 0.13E+47 mass=  -0.166E-26a.u.
   SCALEE = 1.0000    scale energy and forces
   NPACO  =    256;   APACO  = 10.0  distance and # of slots for P.C.
   PSTRESS=    0.0 pullay stress

  Mass of Ions in am
   POMASS =  55.85 52.00207.20
  Ionic Valenz
   ZVAL   =   8.00 12.00 14.00
  Atomic Wigner-Seitz radii
   RWIGS  =  -1.00 -1.00 -1.00
  virtual crystal weights 
   VCA    =   1.00  1.00  1.00
   NELECT =     562.0000    total number of electrons
   NUPDOWN=      -1.0000    fix difference up-down

 DOS related values:
   EMIN   =  10.00;   EMAX   =-10.00  energy-range for DOS
   EFERMI =   0.00
   ISMEAR =    -5;   SIGMA  =   0.10  broadening in eV -4-tet -1-fermi 0-gaus

 Electronic relaxation 2 (details)
   IALGO  =     38    algorithm
   LDIAG  =      T    sub-space diagonalisation (order eigenvalues)
   LSUBROT=      F    optimize rotation matrix (better conditioning)
   TURBO    =      0    0=normal 1=particle mesh
   IRESTART =      0    0=no restart 2=restart with 2 vectors
   NREBOOT  =      0    no. of reboots
   NMIN     =      0    reboot dimension
   EREF     =   0.00    reference energy to select bands
   IMIX   =      4    mixing-type and parameters
     AMIX     =   0.05;   BMIX     =  0.00
     AMIX_MAG =   0.20;   BMIX_MAG =  0.00
     AMIN     =   0.01
     WC   =   100.;   INIMIX=   1;  MIXPRE=   1;  MAXMIX= -45

 Intra band minimization:
   WEIMIN = 0.0000     energy-eigenvalue tresh-hold
   EBREAK =  0.67E-08  absolut break condition
   DEPER  =   0.30     relativ break condition  

   TIME   =   0.40     timestep for ELM

  volume/ion in A,a.u.               =      27.15       183.24
  Fermi-wavevector in a.u.,A,eV,Ry     =   1.129613  2.134659 17.361374  1.276025
  Thomas-Fermi vector in A             =   2.266307
 
 Write flags
   LWAVE        =      T    write WAVECAR
   LDOWNSAMPLE  =      F    k-point downsampling of WAVECAR
   LCHARG       =      T    write CHGCAR
   LVTOT        =      F    write LOCPOT, total local potential
   LVHAR        =      F    write LOCPOT, Hartree potential only
   LELF         =      T    write electronic localiz. function (ELF)
   LORBIT       =      0    0 simple, 1 ext, 2 COOP (PROOUT), +10 PAW based schemes


 Dipole corrections
   LMONO  =      F    monopole corrections only (constant potential shift)
   LDIPOL =      T    correct potential (dipole corrections)
   IDIPOL =      3    1-x, 2-y, 3-z, 4-all directions 
   EPSILON=  1.0000000 bulk dielectric constant

 Exchange correlation treatment:
   GGA     =    --    GGA type
   LEXCH   =     8    internal setting for exchange type
   LIBXC   =     F    Libxc                    
   VOSKOWN =     0    Vosko Wilk Nusair interpolation
   LHFCALC =     F    Hartree Fock is set to
   LHFONE  =     F    Hartree Fock one center treatment
   AEXX    =    0.0000 exact exchange contribution

 Linear response parameters
   LEPSILON=     F    determine dielectric tensor
   LRPA    =     F    only Hartree local field effects (RPA)
   LNABLA  =     F    use nabla operator in PAW spheres
   LVEL    =     F    velocity operator in full k-point grid
   CSHIFT  =0.1000    complex shift for real part using Kramers Kronig
   OMEGAMAX=  -1.0    maximum frequency
   DEG_THRESHOLD= 0.2000000E-02 threshold for treating states as degnerate
   RTIME   =   -0.100 relaxation time in fs
  (WPLASMAI=    0.000 imaginary part of plasma frequency in eV, 0.658/RTIME)
   DFIELD  = 0.0000000 0.0000000 0.0000000 field for delta impulse in time
 
  Optional k-point grid parameters
   LKPOINTS_OPT  =     F    use optional k-point grid
   KPOINTS_OPT_MODE=     1    mode for optional k-point grid
 
 Orbital magnetization related:
   ORBITALMAG=     F  switch on orbital magnetization
   LCHIMAG   =     F  perturbation theory with respect to B field
   DQ        =  0.001000  dq finite difference perturbation B field
   LLRAUG    =     F  two centre corrections for induced B field



--------------------------------------------------------------------------------------------------------


 Static calculation
 charge density and potential will be updated during run
 spin polarized calculation
 Variant of blocked Davidson
 Davidson routine will perform the subspace rotation
 perform sub-space diagonalisation
    after iterative eigenvector-optimisation
 modified Broyden-mixing scheme, WC =      100.0
 initial mixing is a Kerker type mixing with AMIX =  0.0500 and BMIX =      0.0001
 Hartree-type preconditioning will be used
 using additional bands           91
 real space projection scheme for non local part
 use partial core corrections
 calculate Harris-corrections to forces 
   (improved forces if not selfconsistent)
 use gradient corrections 
 use of overlap-Matrix (Vanderbilt PP)
 Fermi weights with tetrahedron method with Bloechl corrections


--------------------------------------------------------------------------------------------------------


  energy-cutoff  :      450.00
  volume of cell :     1710.69
      direct lattice vectors                 reciprocal lattice vectors
     8.532699585  0.000000000  0.000000000     0.117196204  0.000007163  0.000000000
    -0.000519333  8.496999725  0.000000000     0.000000000  0.117688600  0.000000000
     0.000000000  0.000000000 23.594999313     0.000000000  0.000000000  0.042381862

  length of vectors
     8.532699585  8.496999741 23.594999313     0.117196204  0.117688600  0.042381862


 
 k-points in units of 2pi/SCALE and weight: K-Spacing Value to Generate K-Mesh: 0.03
   0.00000000  0.00000000  0.00000000       0.062
   0.02929905  0.00000179  0.00000000       0.125
   0.05859810  0.00000358  0.00000000       0.062
   0.00000000  0.02942215  0.00000000       0.125
   0.02929905  0.02942394  0.00000000       0.125
   0.05859810  0.02942573  0.00000000       0.125
  -0.02929905  0.02942036  0.00000000       0.125
   0.00000000  0.05884430  0.00000000       0.062
   0.02929905  0.05884609  0.00000000       0.125
   0.05859810  0.05884788  0.00000000       0.062
 
 k-points in reciprocal lattice and weights: K-Spacing Value to Generate K-Mesh: 0.03
   0.00000000  0.00000000  0.00000000       0.062
   0.25000000  0.00000000  0.00000000       0.125
   0.50000000  0.00000000  0.00000000       0.062
   0.00000000  0.25000000  0.00000000       0.125
   0.25000000  0.25000000  0.00000000       0.125
   0.50000000  0.25000000  0.00000000       0.125
  -0.25000000  0.25000000  0.00000000       0.125
   0.00000000  0.50000000  0.00000000       0.062
   0.25000000  0.50000000  0.00000000       0.125
   0.50000000  0.50000000  0.00000000       0.062
 
 position of ions in fractional coordinates (direct lattice) 
   0.00086000  0.99993000  0.24271000
   0.16622624  0.16566945  0.30368166
   0.50837251  0.17238227  0.30366382
   0.66822000  0.00107000  0.24272000
   0.83233064  0.17375749  0.30268855
   0.00044000  0.33497000  0.24240000
   0.16647445  0.50088467  0.30431317
   0.33469000  0.33305000  0.24267000
   0.50654469  0.49719301  0.30206079
   0.82724434  0.49653323  0.30228094
   0.16772085  0.83410687  0.30617285
   0.33342000  0.66555000  0.24261000
   0.83531056  0.83229851  0.30379548
   0.00064000  0.00119000  0.00199000
   0.98945145  0.00986683  0.36154096
   0.16843000  0.16962000  0.06269000
   0.33460000  0.00297000  0.00254000
   0.34395537  0.01250140  0.36273829
   0.50463000  0.16850000  0.06120000
   0.83272000  0.16670000  0.06193000
   0.00004000  0.33467000  0.00213000
   0.00340775  0.33207415  0.36113480
   0.16757000  0.49895000  0.06268000
   0.50099000  0.49896000  0.06206000
   0.83393000  0.50234000  0.06235000
   0.00121000  0.66785000  0.00188000
   0.98911598  0.65751354  0.36037581
   0.16792000  0.83462000  0.06228000
   0.33437000  0.66664000  0.00225000
   0.34488599  0.65518702  0.36160606
   0.50152000  0.83563000  0.06217000
   0.66753000  0.66705000  0.00175000
   0.66272289  0.67264608  0.36127347
   0.83293000  0.83584000  0.06235000
   0.00121000  0.00098000  0.12225000
   0.16700000  0.16811000  0.18239000
   0.33470000  0.00227000  0.12192000
   0.50174000  0.16716000  0.18263000
   0.83421000  0.16639000  0.18283000
   0.16964000  0.49868000  0.18209000
   0.50219000  0.50081000  0.18317000
   0.66741000  0.33395000  0.12233000
   0.83134000  0.50253000  0.18283000
   0.00132000  0.66795000  0.12253000
   0.16898000  0.83509000  0.18243000
   0.33446000  0.66703000  0.12223000
   0.49971000  0.83538000  0.18278000
   0.66698000  0.66840000  0.12259000
   0.83488000  0.83403000  0.18294000
   0.33558000  0.99863000  0.24353000
   0.66801000  0.33262000  0.24229000
   0.00448000  0.66739000  0.24217000
   0.49553106  0.83556563  0.30165725
   0.66521000  0.67351000  0.24327000
   0.66620000  0.99680000  0.00000000
   0.66853973  0.99876911  0.36208727
   0.33213000  0.33386000  0.00135000
   0.33452714  0.33265467  0.36307199
   0.67040000  0.33673000  0.00321000
   0.66728000  0.99998000  0.12246000
   0.99806000  0.33495000  0.12235000
   0.33675000  0.33238000  0.12261000
   0.16790661  0.83272461  0.43585311
 
 position of ions in cartesian coordinates  (Angst):
   0.00681883  8.49640493  5.72674228
   1.41827249  1.40769328  7.16536855
   4.33770040  1.46473208  7.16494774
   5.70171996  0.00909179  5.72697823
   7.10193704  1.47641737  7.14193619
   0.00358043  2.84624000  5.71942783
   1.42021634  4.25601694  7.18026894
   2.85563626  2.82992576  5.72579848
   4.32193544  4.22464891  7.12712410
   7.05836958  4.21904272  7.13231849
   1.43067842  7.08740586  7.22414814
   2.84462705  5.65517817  5.72438278
   7.12702186  7.07204019  7.16805411
   0.00546031  0.01011143  0.04695405
   8.44268683  0.08383844  8.53055862
   1.43707450  1.44126109  1.47917051
   2.85503974  0.02523609  0.05993130
   2.93486133  0.10622439  8.55880966
   4.30576868  1.43174445  1.44401396
   7.10526303  1.41644985  1.46123831
   0.00016750  2.84369090  0.05025735
   0.02890487  2.82163397  8.52097530
   1.42956535  4.23957801  1.47893456
   4.27453804  4.23966298  1.46430566
   7.11541328  4.26838284  1.47114821
   0.00997773  5.67472127  0.04435860
   8.43948802  5.58689236  8.50306692
   1.43237747  7.09176591  1.46949656
   2.85273255  5.66443990  0.05308875
   2.94246829  5.56712389  8.53209481
   4.27888553  7.10034788  1.46690111
   5.69548653  5.66792367  0.04129125
   5.65446602  5.71547357  8.52424739
   7.10670739  7.10213225  1.47114821
   0.01032406  0.00832706  2.88448867
   1.42487353  1.42843062  4.30349192
   2.85589337  0.01928819  2.87670232
   4.28110988  1.42035847  4.30915472
   7.11797691  1.41381578  4.31387372
   1.44722818  4.23728382  4.29641342
   4.28477632  4.25538243  4.32189602
   5.69463560  2.83757306  2.88637627
   7.09331349  4.26999727  4.31387372
   0.01091628  5.67557097  2.89109527
   1.44142189  7.09575950  4.30443572
   2.85350029  5.66775373  2.88401677
   4.26344147  7.09822363  4.31269397
   5.69079285  5.67939462  2.89251097
   7.12334709  7.08675268  4.31646917
   2.86288471  8.48535884  5.74609018
   5.69975591  2.82627205  5.71683238
   0.03787990  5.67081265  5.71400098
   4.22778374  7.09980096  7.11760265
   5.67568732  5.72281428  5.73995548
   5.68396679  8.46980933  0.00000000
   5.70392999  8.48654081  8.54344884
   2.83379213  2.83680833  0.03185325
   2.85424682  2.82656667  8.56668342
   5.72014693  2.86119472  0.07573995
   5.69318046  8.49682978  2.88944362
   8.51597220  2.84607006  2.88684817
   2.87321397  2.82423277  2.89298287
   1.43226420  7.07566082 10.28395388
 


--------------------------------------------------------------------------------------------------------


 k-point   1 :   0.0000 0.0000 0.0000  plane waves:   37053
 k-point   2 :   0.2500 0.0000 0.0000  plane waves:   37082
 k-point   3 :   0.5000 0.0000 0.0000  plane waves:   37122
 k-point   4 :   0.0000 0.2500 0.0000  plane waves:   37091
 k-point   5 :   0.2500 0.2500 0.0000  plane waves:   37070
 k-point   6 :   0.5000 0.2500 0.0000  plane waves:   37050
 k-point   7 :  -0.2500 0.2500 0.0000  plane waves:   37068
 k-point   8 :   0.0000 0.5000 0.0000  plane waves:   37118
 k-point   9 :   0.2500 0.5000 0.0000  plane waves:   37056
 k-point  10 :   0.5000 0.5000 0.0000  plane waves:   37124

 maximum and minimum number of plane-waves per node :     37124    37050

 maximum number of plane-waves:     37124
 maximum index in each direction: 
   IXMAX=   15   IYMAX=   14   IZMAX=   40
   IXMIN=  -15   IYMIN=  -15   IZMIN=  -40


 serial   3D FFT for wavefunctions
 parallel 3D FFT for charge:
    minimum data exchange during FFTs selected (reduces bandwidth)


 total amount of memory used by VASP MPI-rank0  1417596. kBytes
=======================================================================

   base      :      30000. kBytes
   nonlr-proj:      48338. kBytes
   fftplans  :      43220. kBytes
   grid      :     155462. kBytes
   one-center:       1959. kBytes
   wavefun   :    1138617. kBytes
 
     INWAV:  cpu time      0.0001: real time      0.0000
 Broyden mixing: mesh for mixing (old mesh)
   NGX = 29   NGY = 29   NGZ = 81
  (NGX  =120   NGY  =120   NGZ  =336)
  gives a total of  68121 points

 initial charge density was supplied:
 charge density of overlapping atoms calculated
 number of electron     562.0000000 magnetization      63.0000000
 keeping initial charge density in first step


--------------------------------------------------------------------------------------------------------


 Maximum index for non-local projection operator         4950
 Maximum index for augmentation-charges         4496 (set IRDMAX)


--------------------------------------------------------------------------------------------------------


 First call to EWALD:  gamma=   0.148
 Maximum number of real-space cells 4x 4x 2
 Maximum number of reciprocal cells 2x 2x 5

    FEWALD:  cpu time      0.0124: real time      0.0062


--------------------------------------- Iteration      1(   1)  ---------------------------------------


    POTLOK:  cpu time      7.3339: real time      1.5140
    SETDIJ:  cpu time      0.9669: real time      0.1388
     EDDAV:  cpu time    194.0125: real time     27.9712
 BZINTS: Fermi energy:   12.180504;  562.000000 electrons
         Band energy: 0.189346E+04;  BLOECHL correction:   -0.011937
       DOS:  cpu time      0.5590: real time      0.0807
    --------------------------------------------
      LOOP:  cpu time    202.8727: real time     29.7047

 eigenvalue-minimisations  : 15792
 total energy-change (2. order) : 0.5519626E+04  (-0.2377848E+05)
 number of electron     562.0000000 magnetization      63.0000000
 augmentation part      562.0000000 magnetization      63.0000000

 DIPCOR: dipole corrections for dipol
 direction  3 min pos   235,
 dipolmoment           0.000000      0.000000     -0.000184 electrons x Angstroem
 Tr[quadrupol]     -6861.327744

 energy correction for charged system         0.000000 eV
 dipol+quadrupol energy correction           -0.000000 eV
 added-field ion interaction         -0.002643 eV  (added to PSCEN)


 Free energy of the ion-electron system (eV)
  ---------------------------------------------------
  alpha Z        PSCENC =      1801.23764928
  Ewald energy   TEWEN  =    206281.52738664
  -Hartree energ DENC   =   -256615.27751590
  -exchange      EXHF   =         0.00000000
  -V(xc)+E(xc)   XCENC  =       943.03576375
  PAW double counting   =     45612.52296067   -46602.56091303
  entropy T*S    EENTRO =         0.00000000
  eigenvalues    EBANDS =      1893.46317624
  atomic energy  EATOM  =     52205.67765473
  Solvation  Ediel_sol  =         0.00000000
  ---------------------------------------------------
  free energy    TOTEN  =      5519.62616238 eV

  energy without entropy =     5519.62616238  energy(sigma->0) =     5519.62616238


--------------------------------------------------------------------------------------------------------




--------------------------------------- Iteration      1(   2)  ---------------------------------------


     EDDAV:  cpu time    185.5045: real time     26.6842
 BZINTS: Fermi energy:    2.257964;  562.000000 electrons
         Band energy:-0.369470E+04;  BLOECHL correction:   -0.003123
       DOS:  cpu time      0.5644: real time      0.0817
    --------------------------------------------
      LOOP:  cpu time    186.0689: real time     26.7660

 eigenvalue-minimisations  : 14880
 total energy-change (2. order) :-0.5588160E+04  (-0.5385061E+04)
 number of electron     562.0000000 magnetization      63.0000000
 augmentation part      562.0000000 magnetization      63.0000000

 DIPCOR: dipole corrections for dipol
 direction  3 min pos   235,
 dipolmoment           0.000000      0.000000     -0.000184 electrons x Angstroem
 Tr[quadrupol]     -6861.327744

 energy correction for charged system         0.000000 eV
 dipol+quadrupol energy correction           -0.000000 eV
 added-field ion interaction         -0.002643 eV  (added to PSCEN)


 Free energy of the ion-electron system (eV)
  ---------------------------------------------------
  alpha Z        PSCENC =      1801.23764928
  Ewald energy   TEWEN  =    206281.52738664
  -Hartree energ DENC   =   -256615.27751590
  -exchange      EXHF   =         0.00000000
  -V(xc)+E(xc)   XCENC  =       943.03576375
  PAW double counting   =     45612.52296067   -46602.56091303
  entropy T*S    EENTRO =         0.00000000
  eigenvalues    EBANDS =     -3694.69684207
  atomic energy  EATOM  =     52205.67765473
  Solvation  Ediel_sol  =         0.00000000
  ---------------------------------------------------
  free energy    TOTEN  =       -68.53385594 eV

  energy without entropy =      -68.53385594  energy(sigma->0) =      -68.53385594


--------------------------------------------------------------------------------------------------------




--------------------------------------- Iteration      1(   3)  ---------------------------------------


     EDDAV:  cpu time    191.7232: real time     27.5311
 BZINTS: Fermi energy:    1.327574;  562.000000 electrons
         Band energy:-0.414881E+04;  BLOECHL correction:   -0.003167
       DOS:  cpu time      0.5435: real time      0.0777
    --------------------------------------------
      LOOP:  cpu time    192.2666: real time     27.6087

 eigenvalue-minimisations  : 15324
 total energy-change (2. order) :-0.4541135E+03  (-0.4018604E+03)
 number of electron     562.0000000 magnetization      63.0000000
 augmentation part      562.0000000 magnetization      63.0000000

 DIPCOR: dipole corrections for dipol
 direction  3 min pos   235,
 dipolmoment           0.000000      0.000000     -0.000184 electrons x Angstroem
 Tr[quadrupol]     -6861.327744

 energy correction for charged system         0.000000 eV
 dipol+quadrupol energy correction           -0.000000 eV
 added-field ion interaction         -0.002643 eV  (added to PSCEN)


 Free energy of the ion-electron system (eV)
  ---------------------------------------------------
  alpha Z        PSCENC =      1801.23764928
  Ewald energy   TEWEN  =    206281.52738664
  -Hartree energ DENC   =   -256615.27751590
  -exchange      EXHF   =         0.00000000
  -V(xc)+E(xc)   XCENC  =       943.03576375
  PAW double counting   =     45612.52296067   -46602.56091303
  entropy T*S    EENTRO =         0.00000000
  eigenvalues    EBANDS =     -4148.81038842
  atomic energy  EATOM  =     52205.67765473
  Solvation  Ediel_sol  =         0.00000000
  ---------------------------------------------------
  free energy    TOTEN  =      -522.64740229 eV

  energy without entropy =     -522.64740229  energy(sigma->0) =     -522.64740229


--------------------------------------------------------------------------------------------------------




--------------------------------------- Iteration      1(   4)  ---------------------------------------


     EDDAV:  cpu time    289.9509: real time     41.6590
 BZINTS: Fermi energy:    1.181151;  562.000000 electrons
         Band energy:-0.420521E+04;  BLOECHL correction:   -0.003682
       DOS:  cpu time      0.5523: real time      0.0789
    --------------------------------------------
      LOOP:  cpu time    290.5032: real time     41.7379

 eigenvalue-minimisations  : 26008
 total energy-change (2. order) :-0.5640199E+02  (-0.5283690E+02)
 number of electron     562.0000000 magnetization      63.0000000
 augmentation part      562.0000000 magnetization      63.0000000

 DIPCOR: dipole corrections for dipol
 direction  3 min pos   235,
 dipolmoment           0.000000      0.000000     -0.000184 electrons x Angstroem
 Tr[quadrupol]     -6861.327744

 energy correction for charged system         0.000000 eV
 dipol+quadrupol energy correction           -0.000000 eV
 added-field ion interaction         -0.002643 eV  (added to PSCEN)


 Free energy of the ion-electron system (eV)
  ---------------------------------------------------
  alpha Z        PSCENC =      1801.23764928
  Ewald energy   TEWEN  =    206281.52738664
  -Hartree energ DENC   =   -256615.27751590
  -exchange      EXHF   =         0.00000000
  -V(xc)+E(xc)   XCENC  =       943.03576375
  PAW double counting   =     45612.52296067   -46602.56091303
  entropy T*S    EENTRO =         0.00000000
  eigenvalues    EBANDS =     -4205.21237873
  atomic energy  EATOM  =     52205.67765473
  Solvation  Ediel_sol  =         0.00000000
  ---------------------------------------------------
  free energy    TOTEN  =      -579.04939259 eV

  energy without entropy =     -579.04939259  energy(sigma->0) =     -579.04939259


--------------------------------------------------------------------------------------------------------




--------------------------------------- Iteration      1(   5)  ---------------------------------------


     EDDAV:  cpu time    275.5309: real time     39.5951
 BZINTS: Fermi energy:    1.159182;  562.000000 electrons
         Band energy:-0.420829E+04;  BLOECHL correction:   -0.004441
       DOS:  cpu time      0.5994: real time      0.0867
    CHARGE:  cpu time      1.6919: real time      0.4577
    MIXING:  cpu time      0.1129: real time      0.0168
    --------------------------------------------
      LOOP:  cpu time    277.9357: real time     40.1565

 eigenvalue-minimisations  : 24392
 total energy-change (2. order) :-0.3074804E+01  (-0.2921972E+01)
 number of electron     562.0000247 magnetization      61.8366264
 augmentation part      255.6214863 magnetization      44.0089876

 DIPCOR: dipole corrections for dipol
 direction  3 min pos   235,
 dipolmoment           0.000000      0.000000     -0.000184 electrons x Angstroem
 Tr[quadrupol]     -6861.327744

 energy correction for charged system         0.000000 eV
 dipol+quadrupol energy correction           -0.000000 eV
 added-field ion interaction         -0.002643 eV  (added to PSCEN)


 Broyden mixing:
  rms(total) = 0.92937E+01    rms(broyden)= 0.92912E+01
  rms(prec ) = 0.10340E+02
  weight for this iteration     100.00

 Free energy of the ion-electron system (eV)
  ---------------------------------------------------
  alpha Z        PSCENC =      1801.23764928
  Ewald energy   TEWEN  =    206281.52738664
  -Hartree energ DENC   =   -256615.27751590
  -exchange      EXHF   =         0.00000000
  -V(xc)+E(xc)   XCENC  =       943.03576375
  PAW double counting   =     45612.52296067   -46602.56091303
  entropy T*S    EENTRO =         0.00000000
  eigenvalues    EBANDS =     -4208.28718235
  atomic energy  EATOM  =     52205.67765473
  Solvation  Ediel_sol  =         0.00000000
  ---------------------------------------------------
  free energy    TOTEN  =      -582.12419621 eV

  energy without entropy =     -582.12419621  energy(sigma->0) =     -582.12419621


--------------------------------------------------------------------------------------------------------




--------------------------------------- Iteration      1(   6)  ---------------------------------------


    POTLOK:  cpu time      7.0860: real time      1.4720
    SETDIJ:  cpu time      0.9520: real time      0.1363
     EDDAV:  cpu time    301.6943: real time     43.3348
 BZINTS: Fermi energy:    2.318184;  562.000000 electrons
         Band energy:-0.369312E+04;  BLOECHL correction:   -0.021482
       DOS:  cpu time      0.5709: real time      0.0824
    CHARGE:  cpu time      1.7029: real time      0.4499
    MIXING:  cpu time      0.1012: real time      0.0145
    --------------------------------------------
      LOOP:  cpu time    312.1073: real time     45.4899

 eigenvalue-minimisations  : 27176
 total energy-change (2. order) :-0.1433469E+03  (-0.3126612E+02)
 number of electron     562.0000253 magnetization      60.2270287
 augmentation part      255.6474348 magnetization      52.6152655

 DIPCOR: dipole corrections for dipol
 direction  3 min pos   235,
 dipolmoment           0.000000      0.000000      1.677701 electrons x Angstroem
 Tr[quadrupol]     -6884.543378

 energy correction for charged system         0.000000 eV
 dipol+quadrupol energy correction           -0.148866 eV
 added-field ion interaction         24.140485 eV  (added to PSCEN)


 Broyden mixing:
  rms(total) = 0.15121E+02    rms(broyden)= 0.15119E+02
  rms(prec ) = 0.20770E+02
  weight for this iteration     100.00

 eigenvalues of (default mixing * dielectric matrix)
  average eigenvalue GAMMA=   0.2505
  0.2505

 Free energy of the ion-electron system (eV)
  ---------------------------------------------------
  alpha Z        PSCENC =      1825.23191195
  Ewald energy   TEWEN  =    206281.52738664
  -Hartree energ DENC   =   -257303.73846050
  -exchange      EXHF   =         0.00000000
  -V(xc)+E(xc)   XCENC  =       935.10597219
  PAW double counting   =     45899.16396610   -46875.32450568
  entropy T*S    EENTRO =         0.00000000
  eigenvalues    EBANDS =     -3693.11500813
  atomic energy  EATOM  =     52205.67765473
  Solvation  Ediel_sol  =         0.00000000
  ---------------------------------------------------
  free energy    TOTEN  =      -725.47108269 eV

  energy without entropy =     -725.47108269  energy(sigma->0) =     -725.47108269


--------------------------------------------------------------------------------------------------------




--------------------------------------- Iteration      1(   7)  ---------------------------------------


    POTLOK:  cpu time      7.1152: real time      1.4740
    SETDIJ:  cpu time      0.9392: real time      0.1342
     EDDAV:  cpu time    305.1332: real time     43.7812
 BZINTS: Fermi energy:    1.870533;  562.000000 electrons
         Band energy:-0.398346E+04;  BLOECHL correction:   -0.008199
       DOS:  cpu time      0.5640: real time      0.0813
    CHARGE:  cpu time      1.6780: real time      0.4470
    MIXING:  cpu time      0.1020: real time      0.0146
    --------------------------------------------
      LOOP:  cpu time    315.5314: real time     45.9322

 eigenvalue-minimisations  : 27664
 total energy-change (2. order) : 0.3434745E+02  (-0.3626716E+02)
 number of electron     562.0000184 magnetization      58.7627191
 augmentation part      259.1053075 magnetization      51.4153713

 DIPCOR: dipole corrections for dipol
 direction  3 min pos   237,
 dipolmoment           0.000000      0.000000     -1.589592 electrons x Angstroem
 Tr[quadrupol]     -6873.310840

 energy correction for charged system         0.000000 eV
 dipol+quadrupol energy correction           -0.133640 eV
 added-field ion interaction        -36.144435 eV  (added to PSCEN)


 Broyden mixing:
  rms(total) = 0.14753E+02    rms(broyden)= 0.14752E+02
  rms(prec ) = 0.22391E+02
  weight for this iteration     100.00

 eigenvalues of (default mixing * dielectric matrix)
  average eigenvalue GAMMA=   0.2123
  0.3139  0.1107

 Free energy of the ion-electron system (eV)
  ---------------------------------------------------
  alpha Z        PSCENC =      1764.96221725
  Ewald energy   TEWEN  =    206281.52738664
  -Hartree energ DENC   =   -256919.72554575
  -exchange      EXHF   =         0.00000000
  -V(xc)+E(xc)   XCENC  =       933.07932659
  PAW double counting   =     45975.30350864   -46948.48930938
  entropy T*S    EENTRO =         0.00000000
  eigenvalues    EBANDS =     -3983.45887265
  atomic energy  EATOM  =     52205.67765473
  Solvation  Ediel_sol  =         0.00000000
  ---------------------------------------------------
  free energy    TOTEN  =      -691.12363393 eV

  energy without entropy =     -691.12363393  energy(sigma->0) =     -691.12363393


--------------------------------------------------------------------------------------------------------




--------------------------------------- Iteration      1(   8)  ---------------------------------------


    POTLOK:  cpu time      7.0624: real time      1.4652
    SETDIJ:  cpu time      0.9394: real time      0.1343
     EDDAV:  cpu time    304.6464: real time     43.7760
 BZINTS: Fermi energy:    1.204179;  562.000000 electrons
         Band energy:-0.406564E+04;  BLOECHL correction:   -0.011794
       DOS:  cpu time      0.5618: real time      0.0809
    CHARGE:  cpu time      1.6871: real time      0.4450
    MIXING:  cpu time      0.1097: real time      0.0157
    --------------------------------------------
      LOOP:  cpu time    315.0068: real time     45.9171

 eigenvalue-minimisations  : 27456
 total energy-change (2. order) : 0.1405429E+03  (-0.1864864E+02)
 number of electron     562.0000247 magnetization      57.6217790
 augmentation part      259.8111091 magnetization      43.4408638

 DIPCOR: dipole corrections for dipol
 direction  3 min pos   230,
 dipolmoment           0.000000      0.000000      0.583798 electrons x Angstroem
 Tr[quadrupol]     -6870.256581

 energy correction for charged system         0.000000 eV
 dipol+quadrupol energy correction           -0.018026 eV
 added-field ion interaction         -3.785264 eV  (added to PSCEN)


 Broyden mixing:
  rms(total) = 0.89643E+01    rms(broyden)= 0.89622E+01
  rms(prec ) = 0.11082E+02
  weight for this iteration     100.00

 eigenvalues of (default mixing * dielectric matrix)
  average eigenvalue GAMMA=   0.3648
  0.5075  0.5075  0.0795

 Free energy of the ion-electron system (eV)
  ---------------------------------------------------
  alpha Z        PSCENC =      1797.43700301
  Ewald energy   TEWEN  =    206281.52738664
  -Hartree energ DENC   =   -256730.20005150
  -exchange      EXHF   =         0.00000000
  -V(xc)+E(xc)   XCENC  =       931.40567369
  PAW double counting   =     46053.55477132   -47024.34751516
  entropy T*S    EENTRO =         0.00000000
  eigenvalues    EBANDS =     -4065.63563662
  atomic energy  EATOM  =     52205.67765473
  Solvation  Ediel_sol  =         0.00000000
  ---------------------------------------------------
  free energy    TOTEN  =      -550.58071388 eV

  energy without entropy =     -550.58071388  energy(sigma->0) =     -550.58071388


--------------------------------------------------------------------------------------------------------




--------------------------------------- Iteration      1(   9)  ---------------------------------------


    POTLOK:  cpu time      7.1966: real time      1.4856
    SETDIJ:  cpu time      0.9591: real time      0.1375
     EDDAV:  cpu time    286.5634: real time     41.1561
 BZINTS: Fermi energy:    0.986467;  562.000000 electrons
         Band energy:-0.419403E+04;  BLOECHL correction:   -0.011918
       DOS:  cpu time      0.5581: real time      0.0803
    CHARGE:  cpu time      1.6905: real time      0.4454
    MIXING:  cpu time      0.1121: real time      0.0160
    --------------------------------------------
      LOOP:  cpu time    297.0801: real time     43.3210

 eigenvalue-minimisations  : 25576
 total energy-change (2. order) : 0.2032841E+02  (-0.6611864E+01)
 number of electron     562.0000229 magnetization      57.0082147
 augmentation part      262.6557796 magnetization      38.9679213

 DIPCOR: dipole corrections for dipol
 direction  3 min pos   235,
 dipolmoment           0.000000      0.000000      0.037774 electrons x Angstroem
 Tr[quadrupol]     -6869.356644

 energy correction for charged system         0.000000 eV
 dipol+quadrupol energy correction           -0.000075 eV
 added-field ion interaction          0.543525 eV  (added to PSCEN)


 Broyden mixing:
  rms(total) = 0.68264E+01    rms(broyden)= 0.68254E+01
  rms(prec ) = 0.72259E+01
  weight for this iteration     100.00

 eigenvalues of (default mixing * dielectric matrix)
  average eigenvalue GAMMA=   0.5696
  1.4740  0.3615  0.3615  0.0815

 Free energy of the ion-electron system (eV)
  ---------------------------------------------------
  alpha Z        PSCENC =      1801.78374223
  Ewald energy   TEWEN  =    206281.52738664
  -Hartree energ DENC   =   -256587.73863047
  -exchange      EXHF   =         0.00000000
  -V(xc)+E(xc)   XCENC  =       926.76887394
  PAW double counting   =     46249.91438926   -47214.15410298
  entropy T*S    EENTRO =         0.00000000
  eigenvalues    EBANDS =     -4194.03162018
  atomic energy  EATOM  =     52205.67765473
  Solvation  Ediel_sol  =         0.00000000
  ---------------------------------------------------
  free energy    TOTEN  =      -530.25230683 eV

  energy without entropy =     -530.25230683  energy(sigma->0) =     -530.25230683


--------------------------------------------------------------------------------------------------------




--------------------------------------- Iteration      1(  10)  ---------------------------------------


    POTLOK:  cpu time      7.1069: real time      1.4731
    SETDIJ:  cpu time      0.9431: real time      0.1347
     EDDAV:  cpu time    274.3315: real time     39.4020
 BZINTS: Fermi energy:    0.579505;  562.000000 electrons
         Band energy:-0.438383E+04;  BLOECHL correction:   -0.002384
       DOS:  cpu time      0.5502: real time      0.0786
    CHARGE:  cpu time      1.7075: real time      0.4462
    MIXING:  cpu time      0.1142: real time      0.0163
    --------------------------------------------
      LOOP:  cpu time    284.7532: real time     41.5510

 eigenvalue-minimisations  : 24312
 total energy-change (2. order) : 0.1454979E+02  (-0.4513064E+01)
 number of electron     562.0000270 magnetization      55.2929688
 augmentation part      270.4619002 magnetization      37.6968062

 DIPCOR: dipole corrections for dipol
 direction  3 min pos   232,
 dipolmoment           0.000000      0.000000      0.192821 electrons x Angstroem
 Tr[quadrupol]     -6869.990793

 energy correction for charged system         0.000000 eV
 dipol+quadrupol energy correction           -0.001966 eV
 added-field ion interaction          0.359669 eV  (added to PSCEN)


 Broyden mixing:
  rms(total) = 0.61138E+01    rms(broyden)= 0.61134E+01
[...]
  206        set_dd_paw                            0.081836                            1   3
  207          m_sumb_d                              0.005832                          7   4
  208        strkin                                0.068634                            1   3
  209          m_sumb_d                              0.000036                          1   4
  210        strelo                                0.006245                            1   3
  211          m_sumb_d                              0.000287                          2   4
  212        strnlr                                9.369140                            1   3
  213          rspher_all                            0.518237                          9   4
  214          phaser                                1.493025                         90   4
  215          rpro_isp                              7.267606                         90   4
  216            fftwav_mpi                            0.410565                    16740   5
  217              fftwav                                0.387016                  16740   6
  218                fft3d                                 0.234824                16740   7
  219            rpromu_acc                            6.800624                     4320   5
  220          m_sumb_d                              0.000022                          1   4
  221        fft3d_mpi                             0.248611                           22   3
  222          fftbrc_mpi                            0.227458                         22   4
  223            fftbas_plan_mpi                       0.227432                       22   5
  224              dfftw_execute                         0.064428                     66   6
  225              map_forward                           0.065421                     20   6
  226                map_gather                            0.012845                   10   7
  227                m_alltoallv_z                         0.043171                   10   7
  228                map_scatter                           0.009323                   10   7
  229              map_backward                          0.095102                     24   6
  230                map_gather                            0.009536                   12   7
  231                m_alltoallv_z                         0.047969                   12   7
  232                map_scatter                           0.037500                   12   7
  233        m_sumb_d                              0.000044                            5   3
  234        forhar                                0.092711                            2   3
  235          m_sumb_d                              0.001136                          2   4
  236        strehar                               0.004264                            1   3
  237          m_sumb_d                              0.000355                          1   4
  238        chggra                                0.114919                            1   3
  239          fft3d_mpi                             0.111431                          3   4
  240            fftbrc_mpi                            0.109915                        3   5
  241              fftbas_plan_mpi                       0.109911                      3   6
  242                map_forward                           0.037519                    4   7
  243                  map_gather                            0.000013                  2   8
  244                  m_alltoallv_z                         0.037475                  2   8
  245                  map_scatter                           0.000013                  2   8
  246                map_backward                          0.000032                    2   7
  247                  map_gather                            0.000004                  1   8
  248                  m_alltoallv_z                         0.000017                  1   8
  249                  map_scatter                           0.000004                  1   8
  250          m_sumb_d                              0.000008                          2   4
  251          pothar                                0.000546                          1   4
  252            m_sumb_d                              0.000141                        1   5
  253        brmix                                 0.129488                            1   3
  254          m_sumb_d                              0.000282                          6   4
  255          brpre                                 0.000236                          2   4
  256          setg0                                 0.006256                          1   4
  257          broyd                                 0.117827                          1   4
  258            brget                                 0.009795                      326   5
  259            brsav                                 0.017416                      163   5
  260            m_sumb_d                              0.021310                       47   5
  261        m_bcast_d                             0.000050                            2   3
  262      potlok                                1.460719                              1   2
  263        fft3d_mpi                             0.287196                           26   3
  264          fftbrc_mpi                            0.259045                         26   4
  265            fftbas_plan_mpi                       0.259016                       26   5
  266              dfftw_execute                         0.073532                     78   6
  267              map_forward                           0.079208                     28   6
  268                map_gather                            0.015909                   16   7
  269                m_alltoallv_z                         0.051071                   16   7
  270                map_scatter                           0.012119                   16   7
  271              map_backward                          0.103514                     24   6
  272                map_gather                            0.009373                   12   7
  273                m_alltoallv_z                         0.055078                   12   7
  274                map_scatter                           0.038965                   12   7
  275        m_sumb_d                              0.000720                            8   3
  276        fewald                                0.000088                            2   3
  277          rsp                                   0.000055                          2   4
  278          rcp                                   0.000029                          2   4
  279        pothar                                0.009967                            1   3
  280          m_sumb_d                              0.002396                          1   4
  281        m_bcast_d                             0.003650                            2   3
  282      potlok_metagga                        0.000001                              1   2
  283      set_dd_magatom                        0.000004                              1   2
  284      set_dd_paw                            0.081785                              1   2
  285        m_sumb_d                              0.006099                            7   3
  286      m_bcast_d                             0.000029                              2   2
  287      fftwav_mpi                           20.370135                           5580   2
  288        fftwav                               20.336678                         5580   3
  289          fft3d                                14.294804                       5580   4
  290      densta                                0.079754                              1   2
 
 Flat profile
 ============
 
             routine name                   CPU           calls
 ---------------------------------------------------------------
 eddav                                1040.987230          50
 lapack                                230.781486      199122
 m_sumb_d                              217.140239      610559
 rpromu_acc                            102.461296      158362
 hamiltmu                               87.359799      199122
 total_time                             82.611815           1
 potlok                                 54.590341          47
 newband                                45.799383      200122
 racc0mu_acc                            45.282138      199122
 m_alltoall_d                           40.378157     2855687
 fft3d                                  31.473514     1182070
 orth1                                  25.687025      597386
 raccmu_                                22.312508      199122
 phaser                                 18.802691        1130
 overl_mu                               16.780195      199122
 w1_copy                                13.272310     1180023
 fftwav                                 12.322880      788729
 redis_pw                               11.901481     1089063
 ggemm                                  10.654408      246122
 m_bcast_z                              10.132747      206562
 redis_proj                              6.684701     1389424
 m_alltoallv_z                           5.820798        1662
 overl                                   5.299426      693702
 dfftw_execute                           3.958125        4359
 setdij_                                 3.900624          74
 densta                                  3.850517          51
 set_dd_paw                              3.633064          48
 lincom                                  3.223022        1020
 map_scatter                             2.744725        1662
 augmentation_charge                     2.343441          46
 m_bcast_d                               2.043967      398342
 eccp                                    2.020380       93000
 fft3d_mpi                               1.933695      394797
 kinhamil                                1.825061      393341
 fftext_mpi                              1.735218      393341
 vhamil                                  1.495290      393341
 map_gather                              1.494550        1662
 broyd                                   1.441452          46
 fftwav_mpi                              1.314353      788729
 apply_precond                           1.311433      300341
 init_hip                                1.286375           1
 force_and_stress                        1.253853           1
 choleski                                1.243109          20
 depsum                                  1.135289          46
 elmin                                   1.064579           1
 orthch                                  0.800329           1
 rspher_all                              0.757931          14
 setup_precond                           0.691549       93000
 fftbas_plan_mpi                         0.416988        1456
 pothar                                  0.355336          48
 setg0                                   0.291312          48
 brmix                                   0.290577          46
 soft_charge                             0.285597          46
 proall                                  0.179539           1
 pw_charge                               0.177693       65287
 brget                                   0.164819        5675
 set_charge                              0.158359          46
 w1_projall                              0.137236      152122
 brsav                                   0.104754        1386
 forhar                                  0.091575           2
 strnlr                                  0.090250           1
 rpro_isp                                0.084044         130
 truncate_high_frequency_w1              0.071315      486341
 brgrid                                  0.070067           1
 strkin                                  0.068598           1
 stufak                                  0.047881           1
 forloc                                  0.046605           1
 fft_gq                                  0.035274          46
 fornlr                                  0.029683           1
 inisym                                  0.011776           1
 brpre                                   0.011207          92
 rsp                                     0.006783          95
 map_backward                            0.006021        1534
 strelo                                  0.005958           1
 map_forward                             0.005041        1378
 strehar                                 0.003909           1
 chggra                                  0.002934           1
 hip_hipfft_makeplan                     0.002834           6
 fftbrc_mpi                              0.001848        1456
 fewald                                  0.001764          95
 rcp                                     0.001658          95
 set_dd_magatom                          0.000300          48
 vectorpot                               0.000299          47
 fordep                                  0.000207           1
 hip_init_hipblas                        0.000198           1
 hip_init_rocsolver                      0.000068           1
 crpa_reader                             0.000065           1
 potlok_metagga                          0.000034          47
 posmap                                  0.000016           2
 rotate_active_occupied_orbital          0.000007           1
 hip_hipfft_makeplans                    0.000006           3
 redis_pw_over_bands                     0.000000           1
 ---------------------------------------------------------------
  summed up times    2190.29893207550     
 
 Accumulative profile
 ====================
 
             routine name                   CPU           calls
 ---------------------------------------------------------------
 total_time                           2190.298932           1
 elmin                                2053.776523           1
 eddav                                1952.725167          50
 lapack                                230.781486      199122
 m_sumb_d                              217.140239      610559
 hamiltmu                              182.475379      199122
 rpromu_acc                            102.461296      158362
 w1_projall                             92.739469      152122
 raccmu_                                84.374840      199122
 potlok                                 68.914722          47
 newband                                57.020002      200122
 racc0mu_acc                            45.282138      199122
 m_alltoall_d                           40.378157     2855687
 fftwav_mpi                             39.657613      788729
 fftwav                                 38.343260      788729
 redis_pw                               32.259960     1089063
 fft3d                                  31.473514     1182070
 redis_proj                             26.704380     1389424
 orth1                                  25.687025      597386
 fft3d_mpi                              21.834924      394797
 set_charge                             20.502949          46
 phaser                                 18.802691        1130
 overl_mu                               16.780195      199122
 force_and_stress                       16.376854           1
 soft_charge                            15.630292          46
 fftbrc_mpi                             14.448095        1456
 fftbas_plan_mpi                        14.446247        1456
 w1_copy                                13.272310     1180023
 rpro_isp                               10.763965         130
 ggemm                                  10.654408      246122
 m_bcast_z                              10.132747      206562
 strnlr                                  9.369140           1
 kinhamil                                9.245450      393341
 fftext_mpi                              7.420389      393341
 orthch                                  6.259172           1
 map_backward                            5.925928        1534
 m_alltoallv_z                           5.820798        1662
 overl                                   5.299426      693702
 map_forward                             4.145206        1378
 dfftw_execute                           3.958125        4359
 setdij_                                 3.934302          74
 set_dd_paw                              3.915084          48
 densta                                  3.850517          51
 augmentation_charge                     3.530116          46
 lincom                                  3.223022        1020
 fornlr                                  3.132924           1
 map_scatter                             2.744725        1662
 brmix                                   2.630579          46
 m_bcast_d                               2.043967      398342
 eccp                                    2.020380       93000
 broyd                                   2.003136          46
 vhamil                                  1.495290      393341
 map_gather                              1.494550        1662
 proall                                  1.414184           1
 apply_precond                           1.311433      300341
 init_hip                                1.286375           1
 choleski                                1.243109          20
 depsum                                  1.184183          46
 rspher_all                              0.757931          14
 setup_precond                           0.691549       93000
 fft_gq                                  0.629694          46
 pothar                                  0.403985          48
 fordep                                  0.318182           1
 setg0                                   0.291312          48
 pw_charge                               0.177693       65287
 brget                                   0.164819        5675
 chggra                                  0.114919           1
 brsav                                   0.104754        1386
 forhar                                  0.092711           2
 truncate_high_frequency_w1              0.071315      486341
 brgrid                                  0.070067           1
 strkin                                  0.068634           1
 stufak                                  0.047881           1
 forloc                                  0.047705           1
 inisym                                  0.011792           1
 brpre                                   0.011207          92
 fewald                                  0.010317          95
 rsp                                     0.006783          95
 strelo                                  0.006245           1
 strehar                                 0.004264           1
 hip_hipfft_makeplans                    0.002840           3
 hip_hipfft_makeplan                     0.002834           6
 rcp                                     0.001658          95
 set_dd_magatom                          0.000300          48
 vectorpot                               0.000299          47
 hip_init_hipblas                        0.000198           1
 hip_init_rocsolver                      0.000068           1
 crpa_reader                             0.000065           1
 potlok_metagga                          0.000034          47
 posmap                                  0.000016           2
 rotate_active_occupied_orbital          0.000007           1
 redis_pw_over_bands                     0.000000           1
 ---------------------------------------------------------------
 
Profiling took   4.173215  1.713742  0.002824  0.002696 seconds
Profiling took   2.455782 seconds
