<?xml version="1.0" encoding="ISO-8859-1"?>
<modeling>
 <generator>
  <i name="program" type="string">vasp </i>
  <i name="version" type="string">6.3.2  </i>
  <i name="subversion" type="string">27Jun22 (build Mar 15 2023 15:45:48) complex                          parallel </i>
  <i name="platform" type="string">LinuxIFC </i>
  <i name="date" type="string">2025 02 10 </i>
  <i name="time" type="string">23:36:51 </i>
 </generator>
 <incar>
  <i type="string" name="SYSTEM">ni3al</i>
  <i type="int" name="ISTART">     0</i>
  <i type="string" name="PREC">Accurate</i>
  <i type="string" name="ALGO">Normal</i>
  <i type="int" name="ISPIN">     2</i>
  <i type="int" name="IMIX">     4</i>
  <i name="AMIX">      0.05000000</i>
  <i name="BMIX">      0.00010000</i>
  <i name="AMIN">      0.01000000</i>
  <i type="int" name="ICHARG">     2</i>
  <i type="int" name="NELM">   150</i>
  <i type="int" name="IBRION">    -1</i>
  <i name="EDIFF">      0.00001000</i>
  <i type="int" name="NSW">     0</i>
  <i type="int" name="ISIF">     2</i>
  <i name="ENCUT">    450.00000000</i>
  <i type="string" name="LREAL">Auto</i>
  <i type="int" name="ISMEAR">    -5</i>
  <i name="SIGMA">      0.10000000</i>
  <i type="int" name="LMAXMIX">     4</i>
  <i type="logical" name="LWAVE"> T  </i>
  <i type="logical" name="LCHARG"> T  </i>
  <i type="logical" name="LELF"> T  </i>
  <i type="logical" name="LDIPOL"> T  </i>
  <i type="int" name="IDIPOL">     3</i>
 </incar>
 <primitive_cell>
  <structure name="primitive_cell" >
   <crystal>
    <varray name="basis" >
     <v>       8.53269958       0.00000000       0.00000000 </v>
     <v>      -0.00051933       8.49699972       0.00000000 </v>
     <v>       0.00000000       0.00000000      23.59499931 </v>
    </varray>
    <i name="volume">   1710.69280467 </i>
    <varray name="rec_basis" >
     <v>       0.11719620       0.00000716       0.00000000 </v>
     <v>       0.00000000       0.11768860       0.00000000 </v>
     <v>       0.00000000       0.00000000       0.04238186 </v>
    </varray>
   </crystal>
   <varray name="positions" >
    <v>       0.00086000       0.99993000       0.24271000 </v>
    <v>       0.16622624       0.16566945       0.30368166 </v>
    <v>       0.50837251       0.17238227       0.30366382 </v>
    <v>       0.66822000       0.00107000       0.24272000 </v>
    <v>       0.83233064       0.17375749       0.30268855 </v>
    <v>       0.00044000       0.33497000       0.24240000 </v>
    <v>       0.16647445       0.50088467       0.30431317 </v>
    <v>       0.33469000       0.33305000       0.24267000 </v>
    <v>       0.50654469       0.49719301       0.30206079 </v>
    <v>       0.82724434       0.49653323       0.30228094 </v>
    <v>       0.16772085       0.83410687       0.30617285 </v>
    <v>       0.33342000       0.66555000       0.24261000 </v>
    <v>       0.83531056       0.83229851       0.30379548 </v>
    <v>       0.00064000       0.00119000       0.00199000 </v>
    <v>       0.98945145       0.00986683       0.36154096 </v>
    <v>       0.16843000       0.16962000       0.06269000 </v>
    <v>       0.33460000       0.00297000       0.00254000 </v>
    <v>       0.34395537       0.01250140       0.36273829 </v>
    <v>       0.50463000       0.16850000       0.06120000 </v>
    <v>       0.83272000       0.16670000       0.06193000 </v>
    <v>       0.00004000       0.33467000       0.00213000 </v>
    <v>       0.00340775       0.33207415       0.36113480 </v>
    <v>       0.16757000       0.49895000       0.06268000 </v>
    <v>       0.50099000       0.49896000       0.06206000 </v>
    <v>       0.83393000       0.50234000       0.06235000 </v>
    <v>       0.00121000       0.66785000       0.00188000 </v>
    <v>       0.98911598       0.65751354       0.36037581 </v>
    <v>       0.16792000       0.83462000       0.06228000 </v>
    <v>       0.33437000       0.66664000       0.00225000 </v>
    <v>       0.34488599       0.65518702       0.36160606 </v>
    <v>       0.50152000       0.83563000       0.06217000 </v>
    <v>       0.66753000       0.66705000       0.00175000 </v>
    <v>       0.66272289       0.67264608       0.36127347 </v>
    <v>       0.83293000       0.83584000       0.06235000 </v>
    <v>       0.00121000       0.00098000       0.12225000 </v>
    <v>       0.16700000       0.16811000       0.18239000 </v>
    <v>       0.33470000       0.00227000       0.12192000 </v>
    <v>       0.50174000       0.16716000       0.18263000 </v>
    <v>       0.83421000       0.16639000       0.18283000 </v>
    <v>       0.16964000       0.49868000       0.18209000 </v>
    <v>       0.50219000       0.50081000       0.18317000 </v>
    <v>       0.66741000       0.33395000       0.12233000 </v>
    <v>       0.83134000       0.50253000       0.18283000 </v>
    <v>       0.00132000       0.66795000       0.12253000 </v>
    <v>       0.16898000       0.83509000       0.18243000 </v>
    <v>       0.33446000       0.66703000       0.12223000 </v>
    <v>       0.49971000       0.83538000       0.18278000 </v>
    <v>       0.66698000       0.66840000       0.12259000 </v>
    <v>       0.83488000       0.83403000       0.18294000 </v>
    <v>       0.33558000       0.99863000       0.24353000 </v>
    <v>       0.66801000       0.33262000       0.24229000 </v>
    <v>       0.00448000       0.66739000       0.24217000 </v>
    <v>       0.49553106       0.83556563       0.30165725 </v>
    <v>       0.66521000       0.67351000       0.24327000 </v>
    <v>       0.66620000       0.99680000       0.00000000 </v>
    <v>       0.66853973       0.99876911       0.36208727 </v>
    <v>       0.33213000       0.33386000       0.00135000 </v>
    <v>       0.33452714       0.33265467       0.36307199 </v>
    <v>       0.67040000       0.33673000       0.00321000 </v>
    <v>       0.66728000       0.99998000       0.12246000 </v>
    <v>       0.99806000       0.33495000       0.12235000 </v>
    <v>       0.33675000       0.33238000       0.12261000 </v>
    <v>       0.16790661       0.83272461       0.43585311 </v>
   </varray>
  </structure>
  <varray name="primitive_index" >
   <v type="int" >        1 </v>
   <v type="int" >        2 </v>
   <v type="int" >        3 </v>
   <v type="int" >        4 </v>
   <v type="int" >        5 </v>
   <v type="int" >        6 </v>
   <v type="int" >        7 </v>
   <v type="int" >        8 </v>
   <v type="int" >        9 </v>
   <v type="int" >       10 </v>
   <v type="int" >       11 </v>
   <v type="int" >       12 </v>
   <v type="int" >       13 </v>
   <v type="int" >       14 </v>
   <v type="int" >       15 </v>
   <v type="int" >       16 </v>
   <v type="int" >       17 </v>
   <v type="int" >       18 </v>
   <v type="int" >       19 </v>
   <v type="int" >       20 </v>
   <v type="int" >       21 </v>
   <v type="int" >       22 </v>
   <v type="int" >       23 </v>
   <v type="int" >       24 </v>
   <v type="int" >       25 </v>
   <v type="int" >       26 </v>
   <v type="int" >       27 </v>
   <v type="int" >       28 </v>
   <v type="int" >       29 </v>
   <v type="int" >       30 </v>
   <v type="int" >       31 </v>
   <v type="int" >       32 </v>
   <v type="int" >       33 </v>
   <v type="int" >       34 </v>
   <v type="int" >       35 </v>
   <v type="int" >       36 </v>
   <v type="int" >       37 </v>
   <v type="int" >       38 </v>
   <v type="int" >       39 </v>
   <v type="int" >       40 </v>
   <v type="int" >       41 </v>
   <v type="int" >       42 </v>
   <v type="int" >       43 </v>
   <v type="int" >       44 </v>
   <v type="int" >       45 </v>
   <v type="int" >       46 </v>
   <v type="int" >       47 </v>
   <v type="int" >       48 </v>
   <v type="int" >       49 </v>
   <v type="int" >       50 </v>
   <v type="int" >       51 </v>
   <v type="int" >       52 </v>
   <v type="int" >       53 </v>
   <v type="int" >       54 </v>
   <v type="int" >       55 </v>
   <v type="int" >       56 </v>
   <v type="int" >       57 </v>
   <v type="int" >       58 </v>
   <v type="int" >       59 </v>
   <v type="int" >       60 </v>
   <v type="int" >       61 </v>
   <v type="int" >       62 </v>
   <v type="int" >       63 </v>
  </varray>
 </primitive_cell>
 <kpoints>
  <generation param="Gamma">
   <v type="int" name="divisions">       4        4        1 </v>
   <v name="usershift">      0.00000000       0.00000000       0.00000000 </v>
   <v name="genvec1">      0.25000000       0.00000000       0.00000000 </v>
   <v name="genvec2">      0.00000000       0.25000000       0.00000000 </v>
   <v name="genvec3">      0.00000000       0.00000000       1.00000000 </v>
   <v name="shift">      0.00000000       0.00000000       0.00000000 </v>
  </generation>
  <varray name="kpointlist" >
   <v>       0.00000000       0.00000000       0.00000000 </v>
   <v>       0.25000000       0.00000000       0.00000000 </v>
   <v>       0.50000000       0.00000000       0.00000000 </v>
   <v>       0.00000000       0.25000000       0.00000000 </v>
   <v>       0.25000000       0.25000000       0.00000000 </v>
   <v>       0.50000000       0.25000000       0.00000000 </v>
   <v>      -0.25000000       0.25000000       0.00000000 </v>
   <v>       0.00000000       0.50000000       0.00000000 </v>
   <v>       0.25000000       0.50000000       0.00000000 </v>
   <v>       0.50000000       0.50000000       0.00000000 </v>
  </varray>
  <varray name="weights" >
   <v>       0.06250000 </v>
   <v>       0.12500000 </v>
   <v>       0.06250000 </v>
   <v>       0.12500000 </v>
   <v>       0.12500000 </v>
   <v>       0.12500000 </v>
   <v>       0.12500000 </v>
   <v>       0.06250000 </v>
   <v>       0.12500000 </v>
   <v>       0.06250000 </v>
  </varray>
  <varray name="tetrahedronlist"  type="int" >
   <v type="int" >        2        4        8        9        9 </v>
   <v type="int" >        2        4        7        9        9 </v>
   <v type="int" >        2        4        7        7        9 </v>
   <v type="int" >        2        4        8        8        9 </v>
   <v type="int" >        2        4        4        8        9 </v>
   <v type="int" >        2        4        4        7        9 </v>
   <v type="int" >        2        4        5        5        8 </v>
   <v type="int" >        2        5        5        8        9 </v>
   <v type="int" >        2        5        8        9        9 </v>
   <v type="int" >        2        4        4        5        8 </v>
   <v type="int" >        2        4        5        8        8 </v>
   <v type="int" >        2        5        8        8        9 </v>
   <v type="int" >        2        1        2        2        4 </v>
   <v type="int" >        2        2        2        4        5 </v>
   <v type="int" >        2        2        4        5        5 </v>
   <v type="int" >        2        1        1        2        4 </v>
   <v type="int" >        2        1        2        4        4 </v>
   <v type="int" >        2        2        4        4        5 </v>
   <v type="int" >        2        1        4        7        7 </v>
   <v type="int" >        2        1        2        7        7 </v>
   <v type="int" >        2        1        2        2        7 </v>
   <v type="int" >        2        1        4        4        7 </v>
   <v type="int" >        2        1        1        4        7 </v>
   <v type="int" >        2        1        1        2        7 </v>
   <v type="int" >        2        7        9       10       10 </v>
   <v type="int" >        2        6        7       10       10 </v>
   <v type="int" >        2        6        6        7       10 </v>
   <v type="int" >        2        7        9        9       10 </v>
   <v type="int" >        2        7        7        9       10 </v>
   <v type="int" >        2        6        7        7       10 </v>
   <v type="int" >        2        5        6        6        9 </v>
   <v type="int" >        2        6        6        9       10 </v>
   <v type="int" >        2        6        9       10       10 </v>
   <v type="int" >        2        5        5        6        9 </v>
   <v type="int" >        2        5        6        9        9 </v>
   <v type="int" >        2        6        9        9       10 </v>
   <v type="int" >        2        2        3        3        5 </v>
   <v type="int" >        2        3        3        5        6 </v>
   <v type="int" >        2        3        5        6        6 </v>
   <v type="int" >        2        2        2        3        5 </v>
   <v type="int" >        2        2        3        5        5 </v>
   <v type="int" >        2        3        5        5        6 </v>
   <v type="int" >        2        2        6        6        7 </v>
   <v type="int" >        2        2        3        6        6 </v>
   <v type="int" >        2        2        3        3        6 </v>
   <v type="int" >        2        2        6        7        7 </v>
   <v type="int" >        2        2        2        6        7 </v>
   <v type="int" >        2        2        2        3        6 </v>
  </varray>
  <i name="volumeweight">      0.01041667 </i>
 </kpoints>
 <parameters>
  <separator name="general" >
   <i type="string" name="SYSTEM">ni3al</i>
   <i type="logical" name="LCOMPAT"> F  </i>
  </separator>
  <separator name="electronic" >
   <i type="string" name="PREC">accura</i>
   <i name="ENMAX">    450.00000000</i>
   <i name="ENAUG">    519.42400000</i>
   <i name="EDIFF">      0.00001000</i>
   <i type="int" name="IALGO">    38</i>
   <i type="int" name="IWAVPR">    10</i>
   <i type="int" name="NBANDS">   372</i>
   <i type="int" name="NBANDSLOW">    -1</i>
   <i type="int" name="NBANDSHIGH">    -1</i>
   <i name="NELECT">    562.00000000</i>
   <i type="int" name="TURBO">     0</i>
   <i type="int" name="IRESTART">     0</i>
   <i type="int" name="NREBOOT">     0</i>
   <i type="int" name="NMIN">     0</i>
   <i name="EREF">      0.00000000</i>
   <separator name="electronic smearing" >
    <i type="int" name="ISMEAR">    -5</i>
    <i name="SIGMA">      0.10000000</i>
    <i name="KSPACING">      0.50000000</i>
    <i type="logical" name="KGAMMA"> T  </i>
    <i type="logical" name="KBLOWUP"> T  </i>
   </separator>
   <separator name="electronic projectors" >
    <i type="logical" name="LREAL"> T  </i>
    <v name="ROPT">     -0.00025000     -0.00025000     -0.00025000</v>
    <i type="int" name="LMAXPAW">  -100</i>
    <i type="int" name="LMAXMIX">     4</i>
    <i type="logical" name="NLSPLINE"> F  </i>
   </separator>
   <separator name="electronic startup" >
    <i type="int" name="ISTART">     0</i>
    <i type="int" name="ICHARG">     2</i>
    <i type="int" name="INIWAV">     1</i>
   </separator>
   <separator name="electronic spin" >
    <i type="int" name="ISPIN">     2</i>
    <i type="logical" name="LNONCOLLINEAR"> F  </i>
    <v name="MAGMOM">      1.00000000      1.00000000      1.00000000      1.00000000      1.00000000      1.00000000      1.00000000      1.00000000      1.00000000      1.00000000      1.00000000      1.00000000      1.00000000      1.00000000      1.00000000      1.00000000      1.00000000      1.00000000      1.00000000      1.00000000
      1.00000000      1.00000000      1.00000000      1.00000000      1.00000000      1.00000000      1.00000000      1.00000000      1.00000000      1.00000000      1.00000000      1.00000000      1.00000000      1.00000000      1.00000000      1.00000000      1.00000000      1.00000000      1.00000000      1.00000000
      1.00000000      1.00000000      1.00000000      1.00000000      1.00000000      1.00000000      1.00000000      1.00000000      1.00000000      1.00000000      1.00000000      1.00000000      1.00000000      1.00000000      1.00000000      1.00000000      1.00000000      1.00000000      1.00000000      1.00000000
      1.00000000      1.00000000      1.00000000</v>
    <i name="NUPDOWN">     -1.00000000</i>
    <i type="logical" name="LSORBIT"> F  </i>
    <v name="SAXIS">      0.00000000      0.00000000      1.00000000</v>
    <i type="logical" name="LSPIRAL"> F  </i>
    <v name="QSPIRAL">      0.00000000      0.00000000      0.00000000</v>
    <i type="logical" name="LZEROZ"> F  </i>
   </separator>
   <separator name="electronic exchange-correlation" >
    <i type="logical" name="LASPH"> F  </i>
    <i type="logical" name="LMETAGGA"> F  </i>
   </separator>
   <separator name="electronic convergence" >
    <i type="int" name="NELM">   150</i>
    <i type="int" name="NELMDL">    -5</i>
    <i type="int" name="NELMIN">     2</i>
    <i name="ENINI">    450.00000000</i>
    <separator name="electronic convergence detail" >
     <i type="logical" name="LDIAG"> T  </i>
     <i type="logical" name="LSUBROT"> F  </i>
     <i name="WEIMIN">      0.00000000</i>
     <i name="EBREAK">      0.00000001</i>
     <i name="DEPER">      0.30000000</i>
     <i type="int" name="NRMM">     4</i>
     <i name="TIME">      0.40000000</i>
    </separator>
   </separator>
   <separator name="electronic mixer" >
    <i name="AMIX">      0.05000000</i>
    <i name="BMIX">      0.00010000</i>
    <i name="AMIN">      0.01000000</i>
    <i name="AMIX_MAG">      0.20000000</i>
    <i name="BMIX_MAG">      0.00010000</i>
    <separator name="electronic mixer details" >
     <i type="int" name="IMIX">     4</i>
     <i type="logical" name="MIXFIRST"> F  </i>
     <i type="int" name="MAXMIX">   -45</i>
     <i name="WC">    100.00000000</i>
     <i type="int" name="INIMIX">     1</i>
     <i type="int" name="MIXPRE">     1</i>
     <i type="int" name="MREMOVE">     5</i>
    </separator>
   </separator>
   <separator name="electronic dipolcorrection" >
    <i type="logical" name="LDIPOL"> T  </i>
    <i type="logical" name="LMONO"> F  </i>
    <i type="int" name="IDIPOL">     3</i>
    <i name="EPSILON">      1.00000000</i>
    <v name="DIPOL">   -100.00000000   -100.00000000   -100.00000000</v>
    <i name="EFIELD">      0.00000000</i>
   </separator>
  </separator>
  <separator name="grids" >
   <i type="int" name="NGX">    60</i>
   <i type="int" name="NGY">    60</i>
   <i type="int" name="NGZ">   168</i>
   <i type="int" name="NGXF">   120</i>
   <i type="int" name="NGYF">   120</i>
   <i type="int" name="NGZF">   336</i>
   <i type="logical" name="ADDGRID"> F  </i>
  </separator>
  <separator name="ionic" >
   <i type="int" name="NSW">     0</i>
   <i type="int" name="IBRION">    -1</i>
   <i type="int" name="MDALGO">     0</i>
   <i type="int" name="ISIF">     2</i>
   <i name="PSTRESS">      0.00000000</i>
   <i name="EDIFFG">      0.00010000</i>
   <i type="int" name="NFREE">     0</i>
   <i name="POTIM">      0.50000000</i>
   <i name="SMASS">     -3.00000000</i>
   <i name="SCALEE">      1.00000000</i>
  </separator>
  <separator name="ionic md" >
   <i name="TEBEG">      0.00010000</i>
   <i name="TEEND">      0.00010000</i>
   <i type="int" name="NBLOCK">     1</i>
   <i type="int" name="KBLOCK">     1</i>
   <i type="int" name="NPACO">   256</i>
   <i name="APACO">     10.00000000</i>
  </separator>
  <separator name="symmetry" >
   <i type="int" name="ISYM">     2</i>
   <i name="SYMPREC">      0.00001000</i>
  </separator>
  <separator name="dos" >
   <i type="int" name="LORBIT">     0</i>
   <v name="RWIGS">     -1.00000000     -1.00000000     -1.00000000</v>
   <i type="int" name="NEDOS">   301</i>
   <i name="EMIN">     10.00000000</i>
   <i name="EMAX">    -10.00000000</i>
   <i name="EFERMI">      0.00000000</i>
  </separator>
  <separator name="writing" >
   <i type="int" name="NWRITE">     2</i>
   <i type="logical" name="LWAVE"> T  </i>
   <i type="logical" name="LDOWNSAMPLE"> F  </i>
   <i type="logical" name="LCHARG"> T  </i>
   <i type="logical" name="LPARD"> F  </i>
   <i type="logical" name="LVTOT"> F  </i>
   <i type="logical" name="LVHAR"> F  </i>
   <i type="logical" name="LELF"> T  </i>
   <i type="logical" name="LOPTICS"> F  </i>
   <v name="STM">      0.00000000      0.00000000      0.00000000      0.00000000      0.00000000      0.00000000      0.00000000</v>
  </separator>
  <separator name="performance" >
   <i type="int" name="NPAR">     4</i>
   <i type="int" name="NSIM">     4</i>
   <i type="int" name="NBLK">    -1</i>
   <i type="logical" name="LPLANE"> T  </i>
   <i type="logical" name="LSCALAPACK"> T  </i>
   <i type="logical" name="LSCAAWARE"> F  </i>
   <i type="logical" name="LSCALU"> F  </i>
   <i type="logical" name="LASYNC"> F  </i>
   <i type="logical" name="LORBITALREAL"> F  </i>
  </separator>
  <separator name="miscellaneous" >
   <i type="int" name="IDIOT">     3</i>
   <i type="int" name="PHON_NSTRUCT">    -1</i>
   <i type="logical" name="LMUSIC"> F  </i>
   <v name="POMASS">     55.84700000     51.99600000    207.20000000</v>
   <v name="DARWINR">      0.00000000      0.00000000      0.00000000</v>
   <v name="DARWINV">      1.00000000      1.00000000      1.00000000</v>
   <i type="logical" name="LCORR"> T  </i>
  </separator>
  <i type="logical" name="GGA_COMPAT"> T  </i>
  <i type="logical" name="LBERRY"> F  </i>
  <i type="int" name="ICORELEVEL">     0</i>
  <i type="logical" name="LDAU"> F  </i>
  <i type="int" name="I_CONSTRAINED_M">     0</i>
  <separator name="electronic exchange-correlation" >
   <i type="string" name="GGA">--</i>
   <i type="int" name="VOSKOWN">     0</i>
   <i type="logical" name="LHFCALC"> F  </i>
   <i type="string" name="PRECFOCK"></i>
   <i type="logical" name="LSYMGRAD"> F  </i>
   <i type="logical" name="LHFONE"> F  </i>
   <i type="logical" name="LRHFCALC"> F  </i>
   <i type="logical" name="LTHOMAS"> F  </i>
   <i type="logical" name="LMODELHF"> F  </i>
   <i type="logical" name="LFOCKACE"> F  </i>
   <i name="ENCUT4O">     -1.00000000</i>
   <i type="int" name="EXXOEP">     0</i>
   <i type="int" name="FOURORBIT">     0</i>
   <i name="AEXX">      0.00000000</i>
   <i name="HFALPHA">      0.00000000</i>
   <i name="MCALPHA">      0.00000000</i>
   <i name="ALDAX">      1.00000000</i>
   <i name="AGGAX">      1.00000000</i>
   <i name="ALDAC">      1.00000000</i>
   <i name="AGGAC">      1.00000000</i>
   <i type="int" name="NKREDX">     1</i>
   <i type="int" name="NKREDY">     1</i>
   <i type="int" name="NKREDZ">     1</i>
   <i type="logical" name="SHIFTRED"> F  </i>
   <i type="logical" name="ODDONLY"> F  </i>
   <i type="logical" name="EVENONLY"> F  </i>
   <i type="int" name="LMAXFOCK">     0</i>
   <i type="int" name="NMAXFOCKAE">     0</i>
   <i type="logical" name="LFOCKAEDFT"> F  </i>
   <i name="HFSCREEN">      0.00000000</i>
   <i name="HFSCREENC">      0.00000000</i>
   <i type="int" name="NBANDSGWLOW">     0</i>
  </separator>
  <separator name="vdW DFT" >
   <i type="logical" name="LUSE_VDW"> F  </i>
   <i name="Zab_VDW">     -0.84910000</i>
   <i name="PARAM1">      0.12340000</i>
   <i name="PARAM2">      1.00000000</i>
   <i name="PARAM3">      0.00000000</i>
  </separator>
  <separator name="model GW" >
   <i type="int" name="MODEL_GW">     0</i>
   <i name="MODEL_EPS0">     16.29231243</i>
   <i name="MODEL_ALPHA">      1.00000000</i>
  </separator>
  <separator name="linear response parameters" >
   <i type="logical" name="LEPSILON"> F  </i>
   <i type="logical" name="LRPA"> F  </i>
   <i type="logical" name="LNABLA"> F  </i>
   <i type="logical" name="LVEL"> F  </i>
   <i name="CSHIFT">      0.10000000</i>
   <i name="OMEGAMAX">     -1.00000000</i>
   <i name="DEG_THRESHOLD">      0.00200000</i>
   <i name="RTIME">     -0.10000000</i>
   <i name="WPLASMAI">      0.00000000</i>
   <v name="DFIELD">      0.00000000      0.00000000      0.00000000</v>
   <v name="WPLASMA">      0.00000000      0.00000000      0.00000000      0.00000000      0.00000000      0.00000000      0.00000000      0.00000000      0.00000000</v>
  </separator>
  <separator name="orbital magnetization" >
   <i type="logical" name="NUCIND"> F  </i>
   <v name="MAGPOS">      0.00000000      0.00000000      0.00000000</v>
   <i type="logical" name="LNICSALL"> T  </i>
   <i type="logical" name="ORBITALMAG"> F  </i>
   <i type="logical" name="LMAGBLOCH"> F  </i>
   <i type="logical" name="LCHIMAG"> F  </i>
   <i type="logical" name="LGAUGE"> T  </i>
   <i type="int" name="MAGATOM">     0</i>
   <v name="MAGDIPOL">      0.00000000      0.00000000      0.00000000</v>
   <v name="AVECCONST">      0.00000000      0.00000000      0.00000000</v>
  </separator>
  <separator name="response functions" >
   <i type="logical" name="LFINITE_TEMPERATURE"> F  </i>
   <i type="logical" name="LADDER"> F  </i>
   <i type="logical" name="LRPAFORCE"> F  </i>
   <i type="logical" name="LFXC"> F  </i>
   <i type="logical" name="LHARTREE"> T  </i>
   <i type="int" name="IBSE">     0</i>
   <v type="int" name="KPOINT">    -1     0     0     0</v>
   <i type="logical" name="LTCTC"> F  </i>
   <i type="logical" name="LTCTE"> F  </i>
   <i type="logical" name="LTETE"> F  </i>
   <i type="logical" name="LTRIPLET"> F  </i>
   <i type="logical" name="LFXCEPS"> F  </i>
   <i type="logical" name="LFXHEG"> F  </i>
   <i type="int" name="NATURALO">     2</i>
   <i type="logical" name="LHOLEGF"> F  </i>
   <i type="logical" name="L2ORDER"> F  </i>
   <i type="logical" name="LDMP1"> F  </i>
   <i type="logical" name="LMP2LT"> F  </i>
   <i type="logical" name="LSMP2LT"> F  </i>
   <i type="logical" name="LGWLF"> F  </i>
   <i name="ENCUTGW">     -2.00000000</i>
   <i name="ENCUTGWSOFT">     -2.00000000</i>
   <i name="ENCUTLF">     -1.00000000</i>
   <i type="logical" name="LESF_SPLINES"> F  </i>
   <i type="int" name="LMAXMP2">    -1</i>
   <i name="SCISSOR">      0.00000000</i>
   <i type="int" name="NOMEGA">     0</i>
   <i type="int" name="NOMEGAR">     0</i>
   <i type="int" name="NBANDSGW">    -1</i>
   <i type="int" name="NBANDSO">    -1</i>
   <i type="int" name="NBANDSV">    -1</i>
   <i type="int" name="NELMGW">     1</i>
   <i type="int" name="NELMHF">     1</i>
   <i type="int" name="DIM">     3</i>
   <i type="int" name="IESPILON">     4</i>
   <i type="int" name="ANTIRES">     0</i>
   <i name="OMEGAMAX">    -30.00000000</i>
   <i name="OMEGAMIN">    -30.00000000</i>
   <i name="OMEGATL">   -200.00000000</i>
   <i type="int" name="OMEGAGRID">     0</i>
   <i name="CSHIFT">     -0.10000000</i>
   <i type="logical" name="LSELFENERGY"> F  </i>
   <i type="logical" name="LSPECTRAL"> F  </i>
   <i type="logical" name="LSPECTRALGW"> F  </i>
   <i type="logical" name="LSINGLES"> F  </i>
   <i type="logical" name="LFERMIGW"> F  </i>
   <i type="logical" name="ODDONLYGW"> F  </i>
   <i type="logical" name="EVENONLYGW"> F  </i>
   <i type="int" name="NKREDLFX">     1</i>
   <i type="int" name="NKREDLFY">     1</i>
   <i type="int" name="NKREDLFZ">     1</i>
   <i type="int" name="MAXMEM">  2800</i>
   <i type="int" name="TELESCOPE">     0</i>
   <i type="int" name="NTAUPAR">    -1</i>
   <i type="int" name="NOMEGAPAR">    -1</i>
   <i name="DAMP_NEWTON">      0.80000001</i>
   <i name="LAMBDA">      1.00000000</i>
  </separator>
  <separator name="External order field" >
   <i name="OFIELD_KAPPA">      0.00000000</i>
   <v name="OFIELD_K">      0.00000000      0.00000000      0.00000000</v>
   <i name="OFIELD_Q6_NEAR">      0.00000000</i>
   <i name="OFIELD_Q6_FAR">      0.00000000</i>
   <i name="OFIELD_A">      0.00000000</i>
  </separator>
  <separator name="optional k-points parameters" >
   <i type="int" name="KPOINTS_OPT_MODE">     1</i>
   <i type="logical" name="LKPOINTS_OPT"> F  </i>
  </separator>
  <separator name="solvation model" >
   <i type="logical" name="LSOL"> F  </i>
  </separator>
 </parameters>
 <atominfo>
  <atoms>      63 </atoms>
  <types>       3 </types>
  <array name="atoms" >
   <dimension dim="1">ion</dimension>
   <field type="string">element</field>
   <field type="int">atomtype</field>
   <set>
    <rc><c>Fe</c><c>   1</c></rc>
    <rc><c>Fe</c><c>   1</c></rc>
    <rc><c>Fe</c><c>   1</c></rc>
    <rc><c>Fe</c><c>   1</c></rc>
    <rc><c>Fe</c><c>   1</c></rc>
    <rc><c>Fe</c><c>   1</c></rc>
    <rc><c>Fe</c><c>   1</c></rc>
    <rc><c>Fe</c><c>   1</c></rc>
    <rc><c>Fe</c><c>   1</c></rc>
    <rc><c>Fe</c><c>   1</c></rc>
    <rc><c>Fe</c><c>   1</c></rc>
    <rc><c>Fe</c><c>   1</c></rc>
    <rc><c>Fe</c><c>   1</c></rc>
    <rc><c>Fe</c><c>   1</c></rc>
    <rc><c>Fe</c><c>   1</c></rc>
    <rc><c>Fe</c><c>   1</c></rc>
    <rc><c>Fe</c><c>   1</c></rc>
    <rc><c>Fe</c><c>   1</c></rc>
    <rc><c>Fe</c><c>   1</c></rc>
    <rc><c>Fe</c><c>   1</c></rc>
    <rc><c>Fe</c><c>   1</c></rc>
    <rc><c>Fe</c><c>   1</c></rc>
    <rc><c>Fe</c><c>   1</c></rc>
    <rc><c>Fe</c><c>   1</c></rc>
    <rc><c>Fe</c><c>   1</c></rc>
    <rc><c>Fe</c><c>   1</c></rc>
    <rc><c>Fe</c><c>   1</c></rc>
    <rc><c>Fe</c><c>   1</c></rc>
    <rc><c>Fe</c><c>   1</c></rc>
    <rc><c>Fe</c><c>   1</c></rc>
    <rc><c>Fe</c><c>   1</c></rc>
    <rc><c>Fe</c><c>   1</c></rc>
    <rc><c>Fe</c><c>   1</c></rc>
    <rc><c>Fe</c><c>   1</c></rc>
    <rc><c>Fe</c><c>   1</c></rc>
    <rc><c>Fe</c><c>   1</c></rc>
    <rc><c>Fe</c><c>   1</c></rc>
    <rc><c>Fe</c><c>   1</c></rc>
    <rc><c>Fe</c><c>   1</c></rc>
    <rc><c>Fe</c><c>   1</c></rc>
    <rc><c>Fe</c><c>   1</c></rc>
    <rc><c>Fe</c><c>   1</c></rc>
    <rc><c>Fe</c><c>   1</c></rc>
    <rc><c>Fe</c><c>   1</c></rc>
    <rc><c>Fe</c><c>   1</c></rc>
    <rc><c>Fe</c><c>   1</c></rc>
    <rc><c>Fe</c><c>   1</c></rc>
    <rc><c>Fe</c><c>   1</c></rc>
    <rc><c>Fe</c><c>   1</c></rc>
    <rc><c>Cr</c><c>   2</c></rc>
    <rc><c>Cr</c><c>   2</c></rc>
    <rc><c>Cr</c><c>   2</c></rc>
    <rc><c>Cr</c><c>   2</c></rc>
    <rc><c>Cr</c><c>   2</c></rc>
    <rc><c>Cr</c><c>   2</c></rc>
    <rc><c>Cr</c><c>   2</c></rc>
    <rc><c>Cr</c><c>   2</c></rc>
    <rc><c>Cr</c><c>   2</c></rc>
    <rc><c>Cr</c><c>   2</c></rc>
    <rc><c>Cr</c><c>   2</c></rc>
    <rc><c>Cr</c><c>   2</c></rc>
    <rc><c>Cr</c><c>   2</c></rc>
    <rc><c>Pb</c><c>   3</c></rc>
   </set>
  </array>
  <array name="atomtypes" >
   <dimension dim="1">type</dimension>
   <field type="int">atomspertype</field>
   <field type="string">element</field>
   <field>mass</field>
   <field>valence</field>
   <field type="string">pseudopotential</field>
   <set>
    <rc><c>  49</c><c>Fe</c><c>     55.84700000</c><c>      8.00000000</c><c>  PAW_PBE Fe 06Sep2000                  </c></rc>
    <rc><c>  13</c><c>Cr</c><c>     51.99600000</c><c>     12.00000000</c><c>  PAW_PBE Cr_pv 02Aug2007               </c></rc>
    <rc><c>   1</c><c>Pb</c><c>    207.20000000</c><c>     14.00000000</c><c>  PAW_PBE Pb_d 06Sep2000                </c></rc>
   </set>
  </array>
 </atominfo>
 <structure name="initialpos" >
  <crystal>
   <varray name="basis" >
    <v>       8.53269958       0.00000000       0.00000000 </v>
    <v>      -0.00051933       8.49699972       0.00000000 </v>
    <v>       0.00000000       0.00000000      23.59499931 </v>
   </varray>
   <i name="volume">   1710.69280467 </i>
   <varray name="rec_basis" >
    <v>       0.11719620       0.00000716       0.00000000 </v>
    <v>       0.00000000       0.11768860       0.00000000 </v>
    <v>       0.00000000       0.00000000       0.04238186 </v>
   </varray>
  </crystal>
  <varray name="positions" >
   <v>       0.00086000       0.99993000       0.24271000 </v>
   <v>       0.16622624       0.16566945       0.30368166 </v>
   <v>       0.50837251       0.17238227       0.30366382 </v>
   <v>       0.66822000       0.00107000       0.24272000 </v>
   <v>       0.83233064       0.17375749       0.30268855 </v>
   <v>       0.00044000       0.33497000       0.24240000 </v>
   <v>       0.16647445       0.50088467       0.30431317 </v>
   <v>       0.33469000       0.33305000       0.24267000 </v>
   <v>       0.50654469       0.49719301       0.30206079 </v>
   <v>       0.82724434       0.49653323       0.30228094 </v>
   <v>       0.16772085       0.83410687       0.30617285 </v>
   <v>       0.33342000       0.66555000       0.24261000 </v>
   <v>       0.83531056       0.83229851       0.30379548 </v>
   <v>       0.00064000       0.00119000       0.00199000 </v>
   <v>       0.98945145       0.00986683       0.36154096 </v>
   <v>       0.16843000       0.16962000       0.06269000 </v>
   <v>       0.33460000       0.00297000       0.00254000 </v>
   <v>       0.34395537       0.01250140       0.36273829 </v>
   <v>       0.50463000       0.16850000       0.06120000 </v>
   <v>       0.83272000       0.16670000       0.06193000 </v>
   <v>       0.00004000       0.33467000       0.00213000 </v>
   <v>       0.00340775       0.33207415       0.36113480 </v>
   <v>       0.16757000       0.49895000       0.06268000 </v>
   <v>       0.50099000       0.49896000       0.06206000 </v>
   <v>       0.83393000       0.50234000       0.06235000 </v>
   <v>       0.00121000       0.66785000       0.00188000 </v>
   <v>       0.98911598       0.65751354       0.36037581 </v>
   <v>       0.16792000       0.83462000       0.06228000 </v>
   <v>       0.33437000       0.66664000       0.00225000 </v>
   <v>       0.34488599       0.65518702       0.36160606 </v>
   <v>       0.50152000       0.83563000       0.06217000 </v>
   <v>       0.66753000       0.66705000       0.00175000 </v>
   <v>       0.66272289       0.67264608       0.36127347 </v>
   <v>       0.83293000       0.83584000       0.06235000 </v>
   <v>       0.00121000       0.00098000       0.12225000 </v>
   <v>       0.16700000       0.16811000       0.18239000 </v>
   <v>       0.33470000       0.00227000       0.12192000 </v>
   <v>       0.50174000       0.16716000       0.18263000 </v>
   <v>       0.83421000       0.16639000       0.18283000 </v>
   <v>       0.16964000       0.49868000       0.18209000 </v>
   <v>       0.50219000       0.50081000       0.18317000 </v>
   <v>       0.66741000       0.33395000       0.12233000 </v>
   <v>       0.83134000       0.50253000       0.18283000 </v>
   <v>       0.00132000       0.66795000       0.12253000 </v>
   <v>       0.16898000       0.83509000       0.18243000 </v>
   <v>       0.33446000       0.66703000       0.12223000 </v>
   <v>       0.49971000       0.83538000       0.18278000 </v>
   <v>       0.66698000       0.66840000       0.12259000 </v>
   <v>       0.83488000       0.83403000       0.18294000 </v>
   <v>       0.33558000       0.99863000       0.24353000 </v>
   <v>       0.66801000       0.33262000       0.24229000 </v>
   <v>       0.00448000       0.66739000       0.24217000 </v>
   <v>       0.49553106       0.83556563       0.30165725 </v>
   <v>       0.66521000       0.67351000       0.24327000 </v>
   <v>       0.66620000       0.99680000       0.00000000 </v>
   <v>       0.66853973       0.99876911       0.36208727 </v>
   <v>       0.33213000       0.33386000       0.00135000 </v>
   <v>       0.33452714       0.33265467       0.36307199 </v>
   <v>       0.67040000       0.33673000       0.00321000 </v>
   <v>       0.66728000       0.99998000       0.12246000 </v>
   <v>       0.99806000       0.33495000       0.12235000 </v>
   <v>       0.33675000       0.33238000       0.12261000 </v>
   <v>       0.16790661       0.83272461       0.43585311 </v>
  </varray>
  <varray name="selective"  type="logical" >
   <v type="logical" >  F  F  F </v>
   <v type="logical" >  T  T  T </v>
   <v type="logical" >  T  T  T </v>
   <v type="logical" >  F  F  F </v>
   <v type="logical" >  T  T  T </v>
   <v type="logical" >  F  F  F </v>
   <v type="logical" >  T  T  T </v>
   <v type="logical" >  F  F  F </v>
   <v type="logical" >  T  T  T </v>
   <v type="logical" >  T  T  T </v>
   <v type="logical" >  T  T  T </v>
   <v type="logical" >  F  F  F </v>
   <v type="logical" >  T  T  T </v>
   <v type="logical" >  F  F  F </v>
   <v type="logical" >  T  T  T </v>
   <v type="logical" >  F  F  F </v>
   <v type="logical" >  F  F  F </v>
   <v type="logical" >  T  T  T </v>
   <v type="logical" >  F  F  F </v>
   <v type="logical" >  F  F  F </v>
   <v type="logical" >  F  F  F </v>
   <v type="logical" >  T  T  T </v>
   <v type="logical" >  F  F  F </v>
   <v type="logical" >  F  F  F </v>
   <v type="logical" >  F  F  F </v>
   <v type="logical" >  F  F  F </v>
   <v type="logical" >  T  T  T </v>
   <v type="logical" >  F  F  F </v>
   <v type="logical" >  F  F  F </v>
   <v type="logical" >  T  T  T </v>
   <v type="logical" >  F  F  F </v>
   <v type="logical" >  F  F  F </v>
   <v type="logical" >  T  T  T </v>
   <v type="logical" >  F  F  F </v>
   <v type="logical" >  F  F  F </v>
   <v type="logical" >  F  F  F </v>
   <v type="logical" >  F  F  F </v>
   <v type="logical" >  F  F  F </v>
   <v type="logical" >  F  F  F </v>
   <v type="logical" >  F  F  F </v>
   <v type="logical" >  F  F  F </v>
   <v type="logical" >  F  F  F </v>
   <v type="logical" >  F  F  F </v>
   <v type="logical" >  F  F  F </v>
   <v type="logical" >  F  F  F </v>
   <v type="logical" >  F  F  F </v>
   <v type="logical" >  F  F  F </v>
   <v type="logical" >  F  F  F </v>
   <v type="logical" >  F  F  F </v>
   <v type="logical" >  F  F  F </v>
   <v type="logical" >  F  F  F </v>
   <v type="logical" >  F  F  F </v>
   <v type="logical" >  T  T  T </v>
   <v type="logical" >  F  F  F </v>
   <v type="logical" >  F  F  F </v>
   <v type="logical" >  T  T  T </v>
   <v type="logical" >  F  F  F </v>
   <v type="logical" >  T  T  T </v>
   <v type="logical" >  F  F  F </v>
   <v type="logical" >  F  F  F </v>
   <v type="logical" >  F  F  F </v>
   <v type="logical" >  F  F  F </v>
   <v type="logical" >  T  T  T </v>
  </varray>
  <nose>
   <v>      -3.00000000       0.00000000       0.00010000       0.00010000 </v>
  </nose>
 </structure>
 <calculation>
  <scstep>
   <time name="dav">  194.01   27.97</time>
   <time name="total">  202.87   29.70</time>
   <dipole>
    <v name="dipole">      0.00000000       0.00000000      -0.00018369 </v>
    <i name="Tr[quadrupol]">  -6861.32774353 </i>
    <i name="Echarged">      0.00000000 </i>
    <i name="Edipol_quadrupol">      0.00000000 </i>
    <i name="Eion">      0.00000000 </i>
   </dipole>
   <energy>
    <i name="alphaZ">   1801.23764928 </i>
    <i name="ewald"> 206281.52738664 </i>
    <i name="hartreedc">-256615.27751590 </i>
    <i name="XCdc">    943.03576375 </i>
    <i name="pawpsdc">  45612.52296067 </i>
    <i name="pawaedc"> -46602.56091303 </i>
    <i name="eentropy">      0.00000000 </i>
    <i name="bandstr">   1893.46317624 </i>
    <i name="atom">  52205.67765473 </i>
    <i name="e_fr_energy">   5519.62616238 </i>
    <i name="e_wo_entrp">   5519.62616238 </i>
    <i name="e_0_energy">   5519.62616238 </i>
   </energy>
  </scstep>
  <scstep>
   <time name="dav">  185.50   26.68</time>
   <time name="total">  186.07   26.77</time>
   <dipole>
    <v name="dipole">      0.00000000       0.00000000      -0.00018369 </v>
    <i name="Tr[quadrupol]">  -6861.32774353 </i>
    <i name="Echarged">      0.00000000 </i>
    <i name="Edipol_quadrupol">      0.00000000 </i>
    <i name="Eion">      0.00000000 </i>
   </dipole>
   <energy>
    <i name="e_fr_energy">    -68.53385594 </i>
    <i name="e_wo_entrp">    -68.53385594 </i>
    <i name="e_0_energy">    -68.53385594 </i>
   </energy>
  </scstep>
  <scstep>
   <time name="dav">  191.72   27.53</time>
   <time name="total">  192.27   27.61</time>
   <dipole>
    <v name="dipole">      0.00000000       0.00000000      -0.00018369 </v>
    <i name="Tr[quadrupol]">  -6861.32774353 </i>
    <i name="Echarged">      0.00000000 </i>
    <i name="Edipol_quadrupol">      0.00000000 </i>
    <i name="Eion">      0.00000000 </i>
   </dipole>
   <energy>
    <i name="e_fr_energy">   -522.64740229 </i>
    <i name="e_wo_entrp">   -522.64740229 </i>
    <i name="e_0_energy">   -522.64740229 </i>
   </energy>
  </scstep>
  <scstep>
   <time name="dav">  289.95   41.66</time>
   <time name="total">  290.50   41.74</time>
   <dipole>
    <v name="dipole">      0.00000000       0.00000000      -0.00018369 </v>
    <i name="Tr[quadrupol]">  -6861.32774353 </i>
    <i name="Echarged">      0.00000000 </i>
    <i name="Edipol_quadrupol">      0.00000000 </i>
    <i name="Eion">      0.00000000 </i>
   </dipole>
   <energy>
    <i name="e_fr_energy">   -579.04939259 </i>
    <i name="e_wo_entrp">   -579.04939259 </i>
    <i name="e_0_energy">   -579.04939259 </i>
   </energy>
  </scstep>
  <scstep>
   <time name="dav">  275.53   39.60</time>
   <time name="total">  277.94   40.16</time>
   <dipole>
    <v name="dipole">      0.00000000       0.00000000      -0.00018369 </v>
    <i name="Tr[quadrupol]">  -6861.32774353 </i>
    <i name="Echarged">      0.00000000 </i>
    <i name="Edipol_quadrupol">      0.00000000 </i>
    <i name="Eion">      0.00000000 </i>
   </dipole>
   <energy>
    <i name="e_fr_energy">   -582.12419621 </i>
    <i name="e_wo_entrp">   -582.12419621 </i>
    <i name="e_0_energy">   -582.12419621 </i>
   </energy>
  </scstep>
  <scstep>
   <time name="dav">  301.69   43.33</time>
   <time name="total">  312.11   45.49</time>
   <dipole>
    <v name="dipole">      0.00000000       0.00000000       1.67770058 </v>
    <i name="Tr[quadrupol]">  -6884.54337784 </i>
    <i name="Echarged">      0.00000000 </i>
    <i name="Edipol_quadrupol">      0.00000000 </i>
    <i name="Eion">      0.00000000 </i>
   </dipole>
   <energy>
    <i name="e_fr_energy">   -725.47108269 </i>
    <i name="e_wo_entrp">   -725.47108269 </i>
    <i name="e_0_energy">   -725.47108269 </i>
   </energy>
  </scstep>
  <scstep>
   <time name="dav">  305.13   43.78</time>
   <time name="total">  315.53   45.93</time>
   <dipole>
    <v name="dipole">      0.00000000       0.00000000      -1.58959187 </v>
    <i name="Tr[quadrupol]">  -6873.31084029 </i>
    <i name="Echarged">      0.00000000 </i>
    <i name="Edipol_quadrupol">      0.00000000 </i>
    <i name="Eion">      0.00000000 </i>
   </dipole>
   <energy>
    <i name="e_fr_energy">   -691.12363393 </i>
    <i name="e_wo_entrp">   -691.12363393 </i>
    <i name="e_0_energy">   -691.12363393 </i>
   </energy>
  </scstep>
  <scstep>
   <time name="dav">  304.65   43.78</time>
   <time name="total">  315.01   45.92</time>
   <dipole>
    <v name="dipole">      0.00000000       0.00000000       0.58379819 </v>
    <i name="Tr[quadrupol]">  -6870.25658098 </i>
    <i name="Echarged">      0.00000000 </i>
    <i name="Edipol_quadrupol">      0.00000000 </i>
    <i name="Eion">      0.00000000 </i>
   </dipole>
   <energy>
    <i name="e_fr_energy">   -550.58071388 </i>
    <i name="e_wo_entrp">   -550.58071388 </i>
    <i name="e_0_energy">   -550.58071388 </i>
   </energy>
  </scstep>
  <scstep>
   <time name="dav">  286.56   41.16</time>
   <time name="total">  297.08   43.32</time>
   <dipole>
    <v name="dipole">      0.00000000       0.00000000       0.03777359 </v>
    <i name="Tr[quadrupol]">  -6869.35664357 </i>
    <i name="Echarged">      0.00000000 </i>
    <i name="Edipol_quadrupol">      0.00000000 </i>
    <i name="Eion">      0.00000000 </i>
   </dipole>
   <energy>
    <i name="e_fr_energy">   -530.25230683 </i>
    <i name="e_wo_entrp">   -530.25230683 </i>
    <i name="e_0_energy">   -530.25230683 </i>
   </energy>
  </scstep>
  <scstep>
   <time name="dav">  274.33   39.40</time>
   <time name="total">  284.75   41.55</time>
   <dipole>
    <v name="dipole">      0.00000000       0.00000000       0.19282121 </v>
    <i name="Tr[quadrupol]">  -6869.99079279 </i>
    <i name="Echarged">      0.00000000 </i>
    <i name="Edipol_quadrupol">      0.00000000 </i>
    <i name="Eion">      0.00000000 </i>
   </dipole>
   <energy>
    <i name="e_fr_energy">   -515.70251577 </i>
    <i name="e_wo_entrp">   -515.70251577 </i>
    <i name="e_0_energy">   -515.70251577 </i>
   </energy>
  </scstep>
  <scstep>
   <time name="dav">  250.87   36.04</time>
   <time name="total">  261.55   38.23</time>
   <dipole>
    <v name="dipole">      0.00000000       0.00000000      -0.00594547 </v>
    <i name="Tr[quadrupol]">  -6876.77923357 </i>
    <i name="Echarged">      0.00000000 </i>
    <i name="Edipol_quadrupol">      0.00000000 </i>
    <i name="Eion">      0.00000000 </i>
   </dipole>
   <energy>
    <i name="e_fr_energy">   -497.08275683 </i>
    <i name="e_wo_entrp">   -497.08275683 </i>
    <i name="e_0_energy">   -497.08275683 </i>
   </energy>
  </scstep>
  <scstep>
   <time name="dav">  238.86   34.31</time>
   <time name="total">  249.21   36.45</time>
   <dipole>
    <v name="dipole">      0.00000000       0.00000000       0.05919273 </v>
    <i name="Tr[quadrupol]">  -6882.75157135 </i>
    <i name="Echarged">      0.00000000 </i>
    <i name="Edipol_quadrupol">      0.00000000 </i>
    <i name="Eion">      0.00000000 </i>
   </dipole>
   <energy>
    <i name="e_fr_energy">   -492.28848802 </i>
    <i name="e_wo_entrp">   -492.28848802 </i>
    <i name="e_0_energy">   -492.28848802 </i>
   </energy>
  </scstep>
  <scstep>
   <time name="dav">  242.81   34.88</time>
   <time name="total">  253.21   37.03</time>
   <dipole>
    <v name="dipole">      0.00000000       0.00000000       0.06644155 </v>
    <i name="Tr[quadrupol]">  -6884.06984230 </i>
    <i name="Echarged">      0.00000000 </i>
    <i name="Edipol_quadrupol">      0.00000000 </i>
    <i name="Eion">      0.00000000 </i>
   </dipole>
   <energy>
    <i name="e_fr_energy">   -492.48358890 </i>
    <i name="e_wo_entrp">   -492.48358890 </i>
    <i name="e_0_energy">   -492.48358890 </i>
   </energy>
  </scstep>
  <scstep>
   <time name="dav">  263.87   37.91</time>
   <time name="total">  274.37   40.06</time>
   <dipole>
    <v name="dipole">      0.00000000       0.00000000       0.06976905 </v>
    <i name="Tr[quadrupol]">  -6883.79590411 </i>
    <i name="Echarged">      0.00000000 </i>
    <i name="Edipol_quadrupol">      0.00000000 </i>
    <i name="Eion">      0.00000000 </i>
   </dipole>
   <energy>
    <i name="e_fr_energy">   -492.37686220 </i>
    <i name="e_wo_entrp">   -492.37686220 </i>
    <i name="e_0_energy">   -492.37686220 </i>
   </energy>
  </scstep>
  <scstep>
   <time name="dav">  296.97   42.65</time>
   <time name="total">  307.31   44.79</time>
   <dipole>
    <v name="dipole">      0.00000000       0.00000000       0.11495823 </v>
    <i name="Tr[quadrupol]">  -6884.48227001 </i>
    <i name="Echarged">      0.00000000 </i>
    <i name="Edipol_quadrupol">      0.00000000 </i>
    <i name="Eion">      0.00000000 </i>
   </dipole>
   <energy>
    <i name="e_fr_energy">   -493.27587918 </i>
    <i name="e_wo_entrp">   -493.27587918 </i>
    <i name="e_0_energy">   -493.27587918 </i>
   </energy>
  </scstep>
  <scstep>
   <time name="dav">  289.59   41.60</time>
   <time name="total">  300.00   43.77</time>
   <dipole>
    <v name="dipole">      0.00000000       0.00000000       0.06126228 </v>
    <i name="Tr[quadrupol]">  -6886.79038537 </i>
    <i name="Echarged">      0.00000000 </i>
    <i name="Edipol_quadrupol">      0.00000000 </i>
    <i name="Eion">      0.00000000 </i>
   </dipole>
   <energy>
    <i name="e_fr_energy">   -495.51080403 </i>
    <i name="e_wo_entrp">   -495.51080403 </i>
    <i name="e_0_energy">   -495.51080403 </i>
   </energy>
  </scstep>
  <scstep>
   <time name="dav">  276.58   39.73</time>
   <time name="total">  286.94   41.89</time>
   <dipole>
    <v name="dipole">      0.00000000       0.00000000       0.17226802 </v>
    <i name="Tr[quadrupol]">  -6890.25053049 </i>
    <i name="Echarged">      0.00000000 </i>
    <i name="Edipol_quadrupol">      0.00000000 </i>
    <i name="Eion">      0.00000000 </i>
   </dipole>
   <energy>
    <i name="e_fr_energy">   -498.91011917 </i>
    <i name="e_wo_entrp">   -498.91011917 </i>
    <i name="e_0_energy">   -498.91011917 </i>
   </energy>
  </scstep>
  <scstep>
   <time name="dav">  281.16   40.30</time>
   <time name="total">  291.58   42.46</time>
   <dipole>
    <v name="dipole">      0.00000000       0.00000000       0.06668348 </v>
    <i name="Tr[quadrupol]">  -6891.41873025 </i>
    <i name="Echarged">      0.00000000 </i>
    <i name="Edipol_quadrupol">      0.00000000 </i>
    <i name="Eion">      0.00000000 </i>
   </dipole>
   <energy>
    <i name="e_fr_energy">   -500.35037593 </i>
    <i name="e_wo_entrp">   -500.35037593 </i>
    <i name="e_0_energy">   -500.35037593 </i>
   </energy>
  </scstep>
  <scstep>
   <time name="dav">  264.82   37.93</time>
   <time name="total">  275.29   40.09</time>
   <dipole>
    <v name="dipole">      0.00000000       0.00000000       0.10119457 </v>
    <i name="Tr[quadrupol]">  -6892.17098074 </i>
    <i name="Echarged">      0.00000000 </i>
    <i name="Edipol_quadrupol">      0.00000000 </i>
    <i name="Eion">      0.00000000 </i>
   </dipole>
   <energy>
    <i name="e_fr_energy">   -501.07710898 </i>
    <i name="e_wo_entrp">   -501.07710898 </i>
    <i name="e_0_energy">   -501.07710898 </i>
   </energy>
  </scstep>
  <scstep>
   <time name="dav">  277.96   39.86</time>
   <time name="total">  288.57   42.04</time>
   <dipole>
    <v name="dipole">      0.00000000       0.00000000       0.06848733 </v>
    <i name="Tr[quadrupol]">  -6892.21037189 </i>
    <i name="Echarged">      0.00000000 </i>
    <i name="Edipol_quadrupol">      0.00000000 </i>
    <i name="Eion">      0.00000000 </i>
   </dipole>
   <energy>
    <i name="e_fr_energy">   -501.46513987 </i>
    <i name="e_wo_entrp">   -501.46513987 </i>
    <i name="e_0_energy">   -501.46513987 </i>
   </energy>
  </scstep>
  <scstep>
   <time name="dav">  285.78   40.94</time>
   <time name="total">  296.29   43.10</time>
   <dipole>
    <v name="dipole">      0.00000000       0.00000000       0.06858853 </v>
    <i name="Tr[quadrupol]">  -6891.56395460 </i>
    <i name="Echarged">      0.00000000 </i>
    <i name="Edipol_quadrupol">      0.00000000 </i>
    <i name="Eion">      0.00000000 </i>
   </dipole>
   <energy>
    <i name="e_fr_energy">   -501.94592914 </i>
    <i name="e_wo_entrp">   -501.94592914 </i>
    <i name="e_0_energy">   -501.94592914 </i>
   </energy>
  </scstep>
  <scstep>
   <time name="dav">  291.59   41.78</time>
   <time name="total">  301.96   43.94</time>
   <dipole>
    <v name="dipole">      0.00000000       0.00000000       0.03829213 </v>
    <i name="Tr[quadrupol]">  -6890.73884187 </i>
    <i name="Echarged">      0.00000000 </i>
    <i name="Edipol_quadrupol">      0.00000000 </i>
    <i name="Eion">      0.00000000 </i>
   </dipole>
   <energy>
    <i name="e_fr_energy">   -502.68087072 </i>
    <i name="e_wo_entrp">   -502.68087072 </i>
    <i name="e_0_energy">   -502.68087072 </i>
   </energy>
  </scstep>
  <scstep>
   <time name="dav">  285.29   40.87</time>
   <time name="total">  295.90   43.05</time>
   <dipole>
    <v name="dipole">      0.00000000       0.00000000       0.07760079 </v>
    <i name="Tr[quadrupol]">  -6890.82271730 </i>
    <i name="Echarged">      0.00000000 </i>
    <i name="Edipol_quadrupol">      0.00000000 </i>
    <i name="Eion">      0.00000000 </i>
   </dipole>
   <energy>
    <i name="e_fr_energy">   -502.96992386 </i>
    <i name="e_wo_entrp">   -502.96992386 </i>
    <i name="e_0_energy">   -502.96992386 </i>
   </energy>
  </scstep>
  <scstep>
   <time name="dav">  278.06   39.84</time>
   <time name="total">  288.55   42.01</time>
   <dipole>
    <v name="dipole">      0.00000000       0.00000000       0.07277297 </v>
    <i name="Tr[quadrupol]">  -6891.14966169 </i>
    <i name="Echarged">      0.00000000 </i>
    <i name="Edipol_quadrupol">      0.00000000 </i>
    <i name="Eion">      0.00000000 </i>
   </dipole>
   <energy>
    <i name="e_fr_energy">   -503.02361365 </i>
    <i name="e_wo_entrp">   -503.02361365 </i>
    <i name="e_0_energy">   -503.02361365 </i>
   </energy>
  </scstep>
  <scstep>
   <time name="dav">  299.25   42.98</time>
   <time name="total">  309.79   45.15</time>
   <dipole>
    <v name="dipole">      0.00000000       0.00000000       0.10540796 </v>
    <i name="Tr[quadrupol]">  -6891.47449687 </i>
    <i name="Echarged">      0.00000000 </i>
    <i name="Edipol_quadrupol">      0.00000000 </i>
    <i name="Eion">      0.00000000 </i>
   </dipole>
   <energy>
    <i name="e_fr_energy">   -503.28245135 </i>
    <i name="e_wo_entrp">   -503.28245135 </i>
    <i name="e_0_energy">   -503.28245135 </i>
   </energy>
  </scstep>
  <scstep>
   <time name="dav">  291.92   41.92</time>
   <time name="total">  302.78   44.15</time>
   <dipole>
    <v name="dipole">      0.00000000       0.00000000       0.07324752 </v>
    <i name="Tr[quadrupol]">  -6891.22197705 </i>
    <i name="Echarged">      0.00000000 </i>
    <i name="Edipol_quadrupol">      0.00000000 </i>
    <i name="Eion">      0.00000000 </i>
   </dipole>
   <energy>
    <i name="e_fr_energy">   -503.62143460 </i>
    <i name="e_wo_entrp">   -503.62143460 </i>
    <i name="e_0_energy">   -503.62143460 </i>
   </energy>
  </scstep>
  <scstep>
   <time name="dav">  278.23   39.99</time>
   <time name="total">  288.81   42.16</time>
   <dipole>
    <v name="dipole">      0.00000000       0.00000000       0.07253675 </v>
    <i name="Tr[quadrupol]">  -6891.23551170 </i>
    <i name="Echarged">      0.00000000 </i>
    <i name="Edipol_quadrupol">      0.00000000 </i>
    <i name="Eion">      0.00000000 </i>
   </dipole>
   <energy>
    <i name="e_fr_energy">   -503.93593035 </i>
    <i name="e_wo_entrp">   -503.93593035 </i>
    <i name="e_0_energy">   -503.93593035 </i>
   </energy>
  </scstep>
  <scstep>
   <time name="dav">  279.88   40.24</time>
   <time name="total">  290.21   42.44</time>
   <dipole>
    <v name="dipole">      0.00000000       0.00000000       0.05838691 </v>
    <i name="Tr[quadrupol]">  -6891.40278684 </i>
    <i name="Echarged">      0.00000000 </i>
    <i name="Edipol_quadrupol">      0.00000000 </i>
    <i name="Eion">      0.00000000 </i>
   </dipole>
   <energy>
    <i name="e_fr_energy">   -503.99864491 </i>
    <i name="e_wo_entrp">   -503.99864491 </i>
    <i name="e_0_energy">   -503.99864491 </i>
   </energy>
  </scstep>
  <scstep>
   <time name="dav">  286.21   41.10</time>
   <time name="total">  296.70   43.27</time>
   <dipole>
    <v name="dipole">      0.00000000       0.00000000       0.07214819 </v>
    <i name="Tr[quadrupol]">  -6891.42600935 </i>
    <i name="Echarged">      0.00000000 </i>
    <i name="Edipol_quadrupol">      0.00000000 </i>
    <i name="Eion">      0.00000000 </i>
   </dipole>
   <energy>
    <i name="e_fr_energy">   -504.08454579 </i>
    <i name="e_wo_entrp">   -504.08454579 </i>
    <i name="e_0_energy">   -504.08454579 </i>
   </energy>
  </scstep>
  <scstep>
   <time name="dav">  287.59   41.28</time>
   <time name="total">  298.15   43.46</time>
   <dipole>
    <v name="dipole">      0.00000000       0.00000000       0.08626184 </v>
    <i name="Tr[quadrupol]">  -6891.46154907 </i>
    <i name="Echarged">      0.00000000 </i>
    <i name="Edipol_quadrupol">      0.00000000 </i>
    <i name="Eion">      0.00000000 </i>
   </dipole>
   <energy>
    <i name="e_fr_energy">   -504.18330624 </i>
    <i name="e_wo_entrp">   -504.18330624 </i>
    <i name="e_0_energy">   -504.18330624 </i>
   </energy>
  </scstep>
  <scstep>
   <time name="dav">  269.91   38.75</time>
   <time name="total">  280.62   40.94</time>
   <dipole>
    <v name="dipole">      0.00000000       0.00000000       0.08347092 </v>
    <i name="Tr[quadrupol]">  -6891.36582682 </i>
    <i name="Echarged">      0.00000000 </i>
    <i name="Edipol_quadrupol">      0.00000000 </i>
    <i name="Eion">      0.00000000 </i>
   </dipole>
   <energy>
    <i name="e_fr_energy">   -504.18405346 </i>
    <i name="e_wo_entrp">   -504.18405346 </i>
    <i name="e_0_energy">   -504.18405346 </i>
   </energy>
  </scstep>
  <scstep>
   <time name="dav">  276.80   39.74</time>
   <time name="total">  287.42   41.93</time>
   <dipole>
    <v name="dipole">      0.00000000       0.00000000       0.08768940 </v>
    <i name="Tr[quadrupol]">  -6891.23402012 </i>
    <i name="Echarged">      0.00000000 </i>
    <i name="Edipol_quadrupol">      0.00000000 </i>
    <i name="Eion">      0.00000000 </i>
   </dipole>
   <energy>
    <i name="e_fr_energy">   -504.17111800 </i>
    <i name="e_wo_entrp">   -504.17111800 </i>
    <i name="e_0_energy">   -504.17111800 </i>
   </energy>
  </scstep>
  <scstep>
   <time name="dav">  288.93   41.41</time>
   <time name="total">  299.66   43.60</time>
   <dipole>
    <v name="dipole">      0.00000000       0.00000000       0.08791751 </v>
    <i name="Tr[quadrupol]">  -6891.21319393 </i>
    <i name="Echarged">      0.00000000 </i>
    <i name="Edipol_quadrupol">      0.00000000 </i>
    <i name="Eion">      0.00000000 </i>
   </dipole>
   <energy>
    <i name="e_fr_energy">   -504.16894586 </i>
    <i name="e_wo_entrp">   -504.16894586 </i>
    <i name="e_0_energy">   -504.16894586 </i>
   </energy>
  </scstep>
  <scstep>
   <time name="dav">  279.06   40.09</time>
   <time name="total">  289.81   42.29</time>
   <dipole>
    <v name="dipole">      0.00000000       0.00000000       0.09270223 </v>
    <i name="Tr[quadrupol]">  -6891.25401110 </i>
    <i name="Echarged">      0.00000000 </i>
    <i name="Edipol_quadrupol">      0.00000000 </i>
    <i name="Eion">      0.00000000 </i>
   </dipole>
   <energy>
    <i name="e_fr_energy">   -504.16971265 </i>
    <i name="e_wo_entrp">   -504.16971265 </i>
    <i name="e_0_energy">   -504.16971265 </i>
   </energy>
  </scstep>
  <scstep>
   <time name="dav">  284.82   40.91</time>
   <time name="total">  295.58   43.11</time>
   <dipole>
    <v name="dipole">      0.00000000       0.00000000       0.08931434 </v>
    <i name="Tr[quadrupol]">  -6891.24739012 </i>
    <i name="Echarged">      0.00000000 </i>
    <i name="Edipol_quadrupol">      0.00000000 </i>
    <i name="Eion">      0.00000000 </i>
   </dipole>
   <energy>
    <i name="e_fr_energy">   -504.17669525 </i>
    <i name="e_wo_entrp">   -504.17669525 </i>
    <i name="e_0_energy">   -504.17669525 </i>
   </energy>
  </scstep>
  <scstep>
   <time name="dav">  288.28   41.41</time>
   <time name="total">  298.94   43.64</time>
   <dipole>
    <v name="dipole">      0.00000000       0.00000000       0.08828477 </v>
    <i name="Tr[quadrupol]">  -6891.19539465 </i>
    <i name="Echarged">      0.00000000 </i>
    <i name="Edipol_quadrupol">      0.00000000 </i>
    <i name="Eion">      0.00000000 </i>
   </dipole>
   <energy>
    <i name="e_fr_energy">   -504.18041201 </i>
    <i name="e_wo_entrp">   -504.18041201 </i>
    <i name="e_0_energy">   -504.18041201 </i>
   </energy>
  </scstep>
  <scstep>
   <time name="dav">  270.32   38.94</time>
   <time name="total">  281.27   41.19</time>
   <dipole>
    <v name="dipole">      0.00000000       0.00000000       0.08658535 </v>
    <i name="Tr[quadrupol]">  -6891.13837733 </i>
    <i name="Echarged">      0.00000000 </i>
    <i name="Edipol_quadrupol">      0.00000000 </i>
    <i name="Eion">      0.00000000 </i>
   </dipole>
   <energy>
    <i name="e_fr_energy">   -504.18306132 </i>
    <i name="e_wo_entrp">   -504.18306132 </i>
    <i name="e_0_energy">   -504.18306132 </i>
   </energy>
  </scstep>
  <scstep>
   <time name="dav">  282.67   40.51</time>
   <time name="total">  293.22   42.74</time>
   <dipole>
    <v name="dipole">      0.00000000       0.00000000       0.08457922 </v>
    <i name="Tr[quadrupol]">  -6891.14273317 </i>
    <i name="Echarged">      0.00000000 </i>
    <i name="Edipol_quadrupol">      0.00000000 </i>
    <i name="Eion">      0.00000000 </i>
   </dipole>
   <energy>
    <i name="e_fr_energy">   -504.18375945 </i>
    <i name="e_wo_entrp">   -504.18375945 </i>
    <i name="e_0_energy">   -504.18375945 </i>
   </energy>
  </scstep>
  <scstep>
   <time name="dav">  280.45   40.19</time>
   <time name="total">  291.43   42.43</time>
   <dipole>
    <v name="dipole">      0.00000000       0.00000000       0.08350577 </v>
    <i name="Tr[quadrupol]">  -6891.13722643 </i>
    <i name="Echarged">      0.00000000 </i>
    <i name="Edipol_quadrupol">      0.00000000 </i>
    <i name="Eion">      0.00000000 </i>
   </dipole>
   <energy>
    <i name="e_fr_energy">   -504.18345484 </i>
    <i name="e_wo_entrp">   -504.18345484 </i>
    <i name="e_0_energy">   -504.18345484 </i>
   </energy>
  </scstep>
  <scstep>
   <time name="dav">  291.07   41.70</time>
   <time name="total">  301.98   43.93</time>
   <dipole>
    <v name="dipole">      0.00000000       0.00000000       0.08219401 </v>
    <i name="Tr[quadrupol]">  -6891.14107037 </i>
    <i name="Echarged">      0.00000000 </i>
    <i name="Edipol_quadrupol">      0.00000000 </i>
    <i name="Eion">      0.00000000 </i>
   </dipole>
   <energy>
    <i name="e_fr_energy">   -504.18419902 </i>
    <i name="e_wo_entrp">   -504.18419902 </i>
    <i name="e_0_energy">   -504.18419902 </i>
   </energy>
  </scstep>
  <scstep>
   <time name="dav">  278.02   39.93</time>
   <time name="total">  289.00   42.16</time>
   <dipole>
    <v name="dipole">      0.00000000       0.00000000       0.08226489 </v>
    <i name="Tr[quadrupol]">  -6891.14681517 </i>
    <i name="Echarged">      0.00000000 </i>
    <i name="Edipol_quadrupol">      0.00000000 </i>
    <i name="Eion">      0.00000000 </i>
   </dipole>
   <energy>
    <i name="e_fr_energy">   -504.18549885 </i>
    <i name="e_wo_entrp">   -504.18549885 </i>
    <i name="e_0_energy">   -504.18549885 </i>
   </energy>
  </scstep>
  <scstep>
   <time name="dav">  283.96   40.79</time>
   <time name="total">  294.91   43.01</time>
   <dipole>
    <v name="dipole">      0.00000000       0.00000000       0.08210144 </v>
    <i name="Tr[quadrupol]">  -6891.14870818 </i>
    <i name="Echarged">      0.00000000 </i>
    <i name="Edipol_quadrupol">      0.00000000 </i>
    <i name="Eion">      0.00000000 </i>
   </dipole>
   <energy>
    <i name="e_fr_energy">   -504.18593829 </i>
    <i name="e_wo_entrp">   -504.18593829 </i>
    <i name="e_0_energy">   -504.18593829 </i>
   </energy>
  </scstep>
  <scstep>
   <time name="dav">  290.59   41.73</time>
   <time name="total">  301.51   43.97</time>
   <dipole>
    <v name="dipole">      0.00000000       0.00000000       0.08259881 </v>
    <i name="Tr[quadrupol]">  -6891.16399655 </i>
    <i name="Echarged">      0.00000000 </i>
    <i name="Edipol_quadrupol">      0.00000000 </i>
    <i name="Eion">      0.00000000 </i>
   </dipole>
   <energy>
    <i name="e_fr_energy">   -504.18612490 </i>
    <i name="e_wo_entrp">   -504.18612490 </i>
    <i name="e_0_energy">   -504.18612490 </i>
   </energy>
  </scstep>
  <scstep>
   <time name="dav">  276.42   39.60</time>
   <time name="total">  287.44   41.85</time>
   <dipole>
    <v name="dipole">      0.00000000       0.00000000       0.08277142 </v>
    <i name="Tr[quadrupol]">  -6891.17374634 </i>
    <i name="Echarged">      0.00000000 </i>
    <i name="Edipol_quadrupol">      0.00000000 </i>
    <i name="Eion">      0.00000000 </i>
   </dipole>
   <energy>
    <i name="e_fr_energy">   -504.18601913 </i>
    <i name="e_wo_entrp">   -504.18601913 </i>
    <i name="e_0_energy">   -504.18601913 </i>
   </energy>
  </scstep>
  <scstep>
   <time name="dav">  287.62   41.27</time>
   <time name="total">  298.66   43.51</time>
   <dipole>
    <v name="dipole">      0.00000000       0.00000000       0.08319172 </v>
    <i name="Tr[quadrupol]">  -6891.18398855 </i>
    <i name="Echarged">      0.00000000 </i>
    <i name="Edipol_quadrupol">      0.00000000 </i>
    <i name="Eion">      0.00000000 </i>
   </dipole>
   <energy>
    <i name="e_fr_energy">   -504.18626901 </i>
    <i name="e_wo_entrp">   -504.18626901 </i>
    <i name="e_0_energy">   -504.18626901 </i>
   </energy>
  </scstep>
  <scstep>
   <time name="dav">  277.70   39.87</time>
   <time name="total">  288.29   42.12</time>
   <dipole>
    <v name="dipole">      0.00000000       0.00000000       0.08326375 </v>
    <i name="Tr[quadrupol]">  -6891.17666085 </i>
    <i name="Echarged">      0.00000000 </i>
    <i name="Edipol_quadrupol">      0.00000000 </i>
    <i name="Eion">      0.00000000 </i>
   </dipole>
   <energy>
    <i name="e_fr_energy">   -504.18650734 </i>
    <i name="e_wo_entrp">   -504.18650734 </i>
    <i name="e_0_energy">   -504.18650734 </i>
   </energy>
  </scstep>
  <scstep>
   <time name="dav">  269.23   38.68</time>
   <time name="total">  280.02   40.95</time>
   <dipole>
    <v name="dipole">      0.00000000       0.00000000       0.08304542 </v>
    <i name="Tr[quadrupol]">  -6891.16627358 </i>
    <i name="Echarged">      0.00000000 </i>
    <i name="Edipol_quadrupol">      0.00000000 </i>
    <i name="Eion">      0.00000000 </i>
   </dipole>
   <energy>
    <i name="e_fr_energy">   -504.18664035 </i>
    <i name="e_wo_entrp">   -504.18664035 </i>
    <i name="e_0_energy">   -504.18664035 </i>
   </energy>
  </scstep>
  <scstep>
   <time name="dav">  270.03   38.78</time>
   <time name="total">  281.12   41.06</time>
   <dipole>
    <v name="dipole">      0.00000000       0.00000000       0.08312385 </v>
    <i name="Tr[quadrupol]">  -6891.17815277 </i>
    <i name="Echarged">      0.00000000 </i>
    <i name="Edipol_quadrupol">      0.00000000 </i>
    <i name="Eion">      0.00000000 </i>
   </dipole>
   <energy>
    <i name="e_fr_energy">   -504.18668671 </i>
    <i name="e_wo_entrp">   -504.18668671 </i>
    <i name="e_0_energy">   -504.18668671 </i>
   </energy>
  </scstep>
  <scstep>
   <time name="dav">  229.53   32.95</time>
   <time name="total">  240.68   35.20</time>
   <dipole>
    <v name="dipole">      0.00000000       0.00000000       0.08326004 </v>
    <i name="Tr[quadrupol]">  -6891.19043085 </i>
    <i name="Echarged">      0.00000000 </i>
    <i name="Edipol_quadrupol">      0.00000000 </i>
    <i name="Eion">      0.00000000 </i>
   </dipole>
   <energy>
    <i name="e_fr_energy">   -504.18666737 </i>
    <i name="e_wo_entrp">   -504.18666737 </i>
    <i name="e_0_energy">   -504.18666737 </i>
   </energy>
  </scstep>
  <scstep>
   <time name="dav">  145.59   24.41</time>
   <time name="total">  154.11   26.09</time>
   <dipole>
    <v name="dipole">      0.00000000       0.00000000       0.08316456 </v>
    <i name="Tr[quadrupol]">  -6891.19283497 </i>
    <i name="Echarged">      0.00000000 </i>
    <i name="Edipol_quadrupol">      0.00000000 </i>
    <i name="Eion">      0.00000000 </i>
   </dipole>
   <energy>
    <i name="alphaZ">   1802.08940710 </i>
    <i name="ewald"> 206281.52738664 </i>
    <i name="hartreedc">-256506.06857886 </i>
    <i name="XCdc">    949.35954874 </i>
    <i name="pawpsdc">  54617.88782884 </i>
    <i name="pawaedc"> -55698.85608608 </i>
    <i name="eentropy">      0.00000000 </i>
    <i name="bandstr">  -4155.80382633 </i>
    <i name="atom">  52205.67765473 </i>
    <i name="e_fr_energy">   -504.18666521 </i>
    <i name="e_wo_entrp">   -504.18666521 </i>
    <i name="e_0_energy">   -504.18666521 </i>
   </energy>
  </scstep>
  <structure>
   <crystal>
    <varray name="basis" >
     <v>       8.53269958       0.00000000       0.00000000 </v>
     <v>      -0.00051933       8.49699972       0.00000000 </v>
     <v>       0.00000000       0.00000000      23.59499931 </v>
    </varray>
    <i name="volume">   1710.69280467 </i>
    <varray name="rec_basis" >
     <v>       0.11719620       0.00000716       0.00000000 </v>
     <v>       0.00000000       0.11768860       0.00000000 </v>
     <v>       0.00000000       0.00000000       0.04238186 </v>
    </varray>
   </crystal>
   <varray name="positions" >
    <v>       0.00086000       0.99993000       0.24271000 </v>
    <v>       0.16622624       0.16566945       0.30368166 </v>
    <v>       0.50837251       0.17238227       0.30366382 </v>
    <v>       0.66822000       0.00107000       0.24272000 </v>
    <v>       0.83233064       0.17375749       0.30268855 </v>
    <v>       0.00044000       0.33497000       0.24240000 </v>
    <v>       0.16647445       0.50088467       0.30431317 </v>
    <v>       0.33469000       0.33305000       0.24267000 </v>
    <v>       0.50654469       0.49719301       0.30206079 </v>
    <v>       0.82724434       0.49653323       0.30228094 </v>
    <v>       0.16772085       0.83410687       0.30617285 </v>
    <v>       0.33342000       0.66555000       0.24261000 </v>
    <v>       0.83531056       0.83229851       0.30379548 </v>
    <v>       0.00064000       0.00119000       0.00199000 </v>
    <v>       0.98945145       0.00986683       0.36154096 </v>
    <v>       0.16843000       0.16962000       0.06269000 </v>
    <v>       0.33460000       0.00297000       0.00254000 </v>
    <v>       0.34395537       0.01250140       0.36273829 </v>
    <v>       0.50463000       0.16850000       0.06120000 </v>
    <v>       0.83272000       0.16670000       0.06193000 </v>
    <v>       0.00004000       0.33467000       0.00213000 </v>
    <v>       0.00340775       0.33207415       0.36113480 </v>
    <v>       0.16757000       0.49895000       0.06268000 </v>
    <v>       0.50099000       0.49896000       0.06206000 </v>
    <v>       0.83393000       0.50234000       0.06235000 </v>
    <v>       0.00121000       0.66785000       0.00188000 </v>
    <v>       0.98911598       0.65751354       0.36037581 </v>
    <v>       0.16792000       0.83462000       0.06228000 </v>
    <v>       0.33437000       0.66664000       0.00225000 </v>
    <v>       0.34488599       0.65518702       0.36160606 </v>
    <v>       0.50152000       0.83563000       0.06217000 </v>
    <v>       0.66753000       0.66705000       0.00175000 </v>
    <v>       0.66272289       0.67264608       0.36127347 </v>
    <v>       0.83293000       0.83584000       0.06235000 </v>
    <v>       0.00121000       0.00098000       0.12225000 </v>
    <v>       0.16700000       0.16811000       0.18239000 </v>
    <v>       0.33470000       0.00227000       0.12192000 </v>
    <v>       0.50174000       0.16716000       0.18263000 </v>
    <v>       0.83421000       0.16639000       0.18283000 </v>
    <v>       0.16964000       0.49868000       0.18209000 </v>
    <v>       0.50219000       0.50081000       0.18317000 </v>
    <v>       0.66741000       0.33395000       0.12233000 </v>
    <v>       0.83134000       0.50253000       0.18283000 </v>
    <v>       0.00132000       0.66795000       0.12253000 </v>
    <v>       0.16898000       0.83509000       0.18243000 </v>
    <v>       0.33446000       0.66703000       0.12223000 </v>
    <v>       0.49971000       0.83538000       0.18278000 </v>
    <v>       0.66698000       0.66840000       0.12259000 </v>
    <v>       0.83488000       0.83403000       0.18294000 </v>
    <v>       0.33558000       0.99863000       0.24353000 </v>
    <v>       0.66801000       0.33262000       0.24229000 </v>
    <v>       0.00448000       0.66739000       0.24217000 </v>
    <v>       0.49553106       0.83556563       0.30165725 </v>
    <v>       0.66521000       0.67351000       0.24327000 </v>
    <v>       0.66620000       0.99680000       0.00000000 </v>
    <v>       0.66853973       0.99876911       0.36208727 </v>
    <v>       0.33213000       0.33386000       0.00135000 </v>
    <v>       0.33452714       0.33265467       0.36307199 </v>
    <v>       0.67040000       0.33673000       0.00321000 </v>
    <v>       0.66728000       0.99998000       0.12246000 </v>
    <v>       0.99806000       0.33495000       0.12235000 </v>
    <v>       0.33675000       0.33238000       0.12261000 </v>
    <v>       0.16790661       0.83272461       0.43585311 </v>
   </varray>
  </structure>
  <varray name="forces" >
   <v>       0.03370737      -0.05701980       0.00725113 </v>
   <v>       0.01003947      -0.00050014       0.00368967 </v>
   <v>      -0.02447506      -0.02256860       0.04692200 </v>
   <v>       0.08634572       0.04151515      -0.18170979 </v>
   <v>       0.00347713       0.00117719       0.00311793 </v>
   <v>       0.07368954       0.06681021      -0.15950721 </v>
   <v>       0.00436075      -0.02100795       0.00427974 </v>
   <v>      -0.03395108      -0.02973027      -0.13710219 </v>
   <v>       0.00737683      -0.00065241       0.01828021 </v>
   <v>      -0.01853361      -0.00144825       0.00409665 </v>
   <v>      -0.00056779      -0.00141713       0.01825003 </v>
   <v>      -0.13196088      -0.03911258      -0.03421013 </v>
   <v>      -0.01972110      -0.00101333      -0.00206292 </v>
   <v>       0.01690200      -0.08236955       0.27667189 </v>
   <v>       0.01124009       0.00100489      -0.00346676 </v>
   <v>      -0.32160665      -0.28664602       0.00994904 </v>
   <v>      -0.05181093      -0.01697654       0.41924166 </v>
   <v>       0.00026559       0.00017883      -0.02521553 </v>
   <v>      -0.21599680      -0.16774270       0.56898927 </v>
   <v>       0.42540974       0.15688030       0.19071154 </v>
   <v>      -0.11783256       0.06316751       0.41491155 </v>
   <v>      -0.00781970      -0.00707093       0.00278826 </v>
   <v>      -0.25579607       0.31518479      -0.00069197 </v>
   <v>       0.14229510       0.46886521       0.18970497 </v>
   <v>       0.12188763       0.09462925      -0.08427009 </v>
   <v>       0.12996294       0.03731773       0.09327284 </v>
   <v>       0.01668575       0.01329578      -0.01578166 </v>
   <v>      -0.01597014       0.02192454      -0.40079630 </v>
   <v>      -0.14875146      -0.00233281       0.25561150 </v>
   <v>       0.00011049       0.01651187      -0.01030061 </v>
   <v>      -0.26236040      -0.35581906       0.01615440 </v>
   <v>       0.01804251      -0.08380594       0.44213610 </v>
   <v>      -0.01336184      -0.01740830      -0.00841159 </v>
   <v>       0.35802838      -0.34002814       0.00679967 </v>
   <v>       0.01061210       0.12650325      -0.01949410 </v>
   <v>      -0.02182759      -0.00538034       0.06001906 </v>
   <v>       0.06962317       0.04543980       0.05340676 </v>
   <v>      -0.10224677      -0.06885521       0.08044898 </v>
   <v>       0.07218520      -0.01022548       0.04708327 </v>
   <v>       0.00921134      -0.01685909       0.23954259 </v>
   <v>      -0.02050822       0.07031618       0.06352447 </v>
   <v>       0.06362861       0.01167824      -0.01641782 </v>
   <v>       0.02513420       0.08452226       0.02937147 </v>
   <v>      -0.05028883      -0.08005727      -0.08697678 </v>
   <v>       0.04570431       0.05668047       0.12642695 </v>
   <v>       0.11422892      -0.01096813      -0.03044155 </v>
   <v>      -0.00493065      -0.03187286       0.01704893 </v>
   <v>      -0.07320507      -0.06945818       0.04795288 </v>
   <v>      -0.00389613      -0.03246745       0.21751755 </v>
   <v>       0.14769072       0.02619691       0.16918136 </v>
   <v>      -0.01712367      -0.06941795      -0.21871202 </v>
   <v>      -0.04132497      -0.09132345      -0.07077490 </v>
   <v>      -0.00431939      -0.00352445      -0.01192711 </v>
   <v>      -0.09879824       0.15240922      -0.09851060 </v>
   <v>       0.07184785       0.42118283      -0.76554679 </v>
   <v>       0.00222356       0.01079776       0.00117037 </v>
   <v>       0.32151691       0.01484562      -0.65826935 </v>
   <v>       0.00639749       0.00555942      -0.00778076 </v>
   <v>      -0.31475587      -0.35658975      -0.18514816 </v>
   <v>      -0.08728787       0.17373629      -0.35871823 </v>
   <v>      -0.05423455      -0.04277997      -0.07834994 </v>
   <v>       0.11513381      -0.07721074      -0.48707180 </v>
   <v>       0.00029872       0.00332922       0.01214194 </v>
  </varray>
  <varray name="stress" >
   <v>     -19.26340437       0.66192608       0.19270874 </v>
   <v>       0.66192524     -19.47261844       0.10297149 </v>
   <v>       0.19270928       0.10297147      -3.87862927 </v>
  </varray>
  <energy>
   <i name="e_fr_energy">   -504.18666521 </i>
   <i name="e_wo_entrp">   -504.18666521 </i>
   <i name="e_0_energy">   -504.18666521 </i>
  </energy>
  <time name="totalsc">14181.48 2100.86</time>
  <eigenvalues>
   <array>
    <dimension dim="1">band</dimension>
    <dimension dim="2">kpoint</dimension>
    <dimension dim="3">spin</dimension>
    <field>eigene</field>
    <field>occ</field>
    <set>
     <set comment="spin 1">
      <set comment="kpoint 1">
       <r>  -42.8375    1.0000 </r>
       <r>  -42.8213    1.0000 </r>
       <r>  -42.8023    1.0000 </r>
       <r>  -42.7987    1.0000 </r>
       <r>  -42.7727    1.0000 </r>
       <r>  -42.7565    1.0000 </r>
       <r>  -42.7376    1.0000 </r>
       <r>  -42.7312    1.0000 </r>
       <r>  -42.7238    1.0000 </r>
       <r>  -42.3459    1.0000 </r>
       <r>  -42.2811    1.0000 </r>
       <r>  -42.2310    1.0000 </r>
       <r>  -41.9918    1.0000 </r>
       <r>  -41.9705    1.0000 </r>
       <r>  -41.9079    1.0000 </r>
       <r>  -41.8850    1.0000 </r>
       <r>  -41.8748    1.0000 </r>
       <r>  -41.8674    1.0000 </r>
       <r>  -41.8451    1.0000 </r>
       <r>  -41.8405    1.0000 </r>
       <r>  -41.8397    1.0000 </r>
       <r>  -41.8229    1.0000 </r>
       <r>  -41.8203    1.0000 </r>
       <r>  -41.8082    1.0000 </r>
       <r>  -41.7934    1.0000 </r>
       <r>  -41.7871    1.0000 </r>
       <r>  -41.7859    1.0000 </r>
       <r>  -41.7734    1.0000 </r>
       <r>  -41.7610    1.0000 </r>
       <r>  -41.7542    1.0000 </r>
       <r>  -41.6729    1.0000 </r>
       <r>  -41.6518    1.0000 </r>
       <r>  -41.6390    1.0000 </r>
       <r>  -40.3713    1.0000 </r>
       <r>  -40.3020    1.0000 </r>
       <r>  -40.2527    1.0000 </r>
       <r>  -40.2514    1.0000 </r>
       <r>  -40.1917    1.0000 </r>
       <r>  -40.1273    1.0000 </r>
       <r>  -15.5236    1.0000 </r>
       <r>  -15.5216    1.0000 </r>
       <r>  -15.5161    1.0000 </r>
       <r>  -15.4795    1.0000 </r>
       <r>  -15.4693    1.0000 </r>
       <r>   -7.6649    1.0000 </r>
       <r>   -7.2018    1.0000 </r>
       <r>   -6.1836    1.0000 </r>
       <r>   -5.3111    1.0000 </r>
       <r>   -5.2490    1.0000 </r>
       <r>   -5.2325    1.0000 </r>
       <r>   -5.2145    1.0000 </r>
       <r>   -4.8735    1.0000 </r>
       <r>   -4.6561    1.0000 </r>
       <r>   -4.6113    1.0000 </r>
       <r>   -4.5932    1.0000 </r>
       <r>   -4.5502    1.0000 </r>
       <r>   -4.1518    1.0000 </r>
       <r>   -4.1457    1.0000 </r>
       <r>   -4.1281    1.0000 </r>
       <r>   -4.1113    1.0000 </r>
       <r>   -4.0910    1.0000 </r>
       <r>   -4.0656    1.0000 </r>
       <r>   -4.0528    1.0000 </r>
       <r>   -4.0023    1.0000 </r>
       <r>   -3.8957    1.0000 </r>
       <r>   -3.8654    1.0000 </r>
       <r>   -3.7182    1.0000 </r>
       <r>   -3.6736    1.0000 </r>
       <r>   -3.6544    1.0000 </r>
       <r>   -3.6294    1.0000 </r>
       <r>   -3.5907    1.0000 </r>
       <r>   -3.5149    1.0000 </r>
       <r>   -3.4600    1.0000 </r>
       <r>   -3.4443    1.0000 </r>
       <r>   -3.4185    1.0000 </r>
       <r>   -3.4083    1.0000 </r>
       <r>   -3.3938    1.0000 </r>
       <r>   -3.3765    1.0000 </r>
       <r>   -3.3648    1.0000 </r>
       <r>   -3.3585    1.0000 </r>
       <r>   -3.3405    1.0000 </r>
       <r>   -3.3220    1.0000 </r>
       <r>   -3.3055    1.0000 </r>
       <r>   -3.2799    1.0000 </r>
       <r>   -3.2774    1.0000 </r>
       <r>   -3.2579    1.0000 </r>
       <r>   -3.2464    1.0000 </r>
       <r>   -3.2357    1.0000 </r>
       <r>   -3.2213    1.0000 </r>
       <r>   -3.1890    1.0000 </r>
       <r>   -3.1658    1.0000 </r>
       <r>   -3.0737    1.0000 </r>
       <r>   -3.0368    1.0000 </r>
       <r>   -2.9860    1.0000 </r>
       <r>   -2.9801    1.0000 </r>
       <r>   -2.9726    1.0000 </r>
[...]
       <r>   -39.0902     0.0000    39.0000 </r>
       <r>   -38.9191     0.0000    39.0000 </r>
       <r>   -38.7479     0.0000    39.0000 </r>
       <r>   -38.5768     0.0000    39.0000 </r>
       <r>   -38.4057     0.0000    39.0000 </r>
       <r>   -38.2346     0.0000    39.0000 </r>
       <r>   -38.0635     0.0000    39.0000 </r>
       <r>   -37.8924     0.0000    39.0000 </r>
       <r>   -37.7213     0.0000    39.0000 </r>
       <r>   -37.5502     0.0000    39.0000 </r>
       <r>   -37.3790     0.0000    39.0000 </r>
       <r>   -37.2079     0.0000    39.0000 </r>
       <r>   -37.0368     0.0000    39.0000 </r>
       <r>   -36.8657     0.0000    39.0000 </r>
       <r>   -36.6946     0.0000    39.0000 </r>
       <r>   -36.5235     0.0000    39.0000 </r>
       <r>   -36.3524     0.0000    39.0000 </r>
       <r>   -36.1813     0.0000    39.0000 </r>
       <r>   -36.0102     0.0000    39.0000 </r>
       <r>   -35.8390     0.0000    39.0000 </r>
       <r>   -35.6679     0.0000    39.0000 </r>
       <r>   -35.4968     0.0000    39.0000 </r>
       <r>   -35.3257     0.0000    39.0000 </r>
       <r>   -35.1546     0.0000    39.0000 </r>
       <r>   -34.9835     0.0000    39.0000 </r>
       <r>   -34.8124     0.0000    39.0000 </r>
       <r>   -34.6413     0.0000    39.0000 </r>
       <r>   -34.4702     0.0000    39.0000 </r>
       <r>   -34.2990     0.0000    39.0000 </r>
       <r>   -34.1279     0.0000    39.0000 </r>
       <r>   -33.9568     0.0000    39.0000 </r>
       <r>   -33.7857     0.0000    39.0000 </r>
       <r>   -33.6146     0.0000    39.0000 </r>
       <r>   -33.4435     0.0000    39.0000 </r>
       <r>   -33.2724     0.0000    39.0000 </r>
       <r>   -33.1013     0.0000    39.0000 </r>
       <r>   -32.9301     0.0000    39.0000 </r>
       <r>   -32.7590     0.0000    39.0000 </r>
       <r>   -32.5879     0.0000    39.0000 </r>
       <r>   -32.4168     0.0000    39.0000 </r>
       <r>   -32.2457     0.0000    39.0000 </r>
       <r>   -32.0746     0.0000    39.0000 </r>
       <r>   -31.9035     0.0000    39.0000 </r>
       <r>   -31.7324     0.0000    39.0000 </r>
       <r>   -31.5613     0.0000    39.0000 </r>
       <r>   -31.3901     0.0000    39.0000 </r>
       <r>   -31.2190     0.0000    39.0000 </r>
       <r>   -31.0479     0.0000    39.0000 </r>
       <r>   -30.8768     0.0000    39.0000 </r>
       <r>   -30.7057     0.0000    39.0000 </r>
       <r>   -30.5346     0.0000    39.0000 </r>
       <r>   -30.3635     0.0000    39.0000 </r>
       <r>   -30.1924     0.0000    39.0000 </r>
       <r>   -30.0213     0.0000    39.0000 </r>
       <r>   -29.8501     0.0000    39.0000 </r>
       <r>   -29.6790     0.0000    39.0000 </r>
       <r>   -29.5079     0.0000    39.0000 </r>
       <r>   -29.3368     0.0000    39.0000 </r>
       <r>   -29.1657     0.0000    39.0000 </r>
       <r>   -28.9946     0.0000    39.0000 </r>
       <r>   -28.8235     0.0000    39.0000 </r>
       <r>   -28.6524     0.0000    39.0000 </r>
       <r>   -28.4812     0.0000    39.0000 </r>
       <r>   -28.3101     0.0000    39.0000 </r>
       <r>   -28.1390     0.0000    39.0000 </r>
       <r>   -27.9679     0.0000    39.0000 </r>
       <r>   -27.7968     0.0000    39.0000 </r>
       <r>   -27.6257     0.0000    39.0000 </r>
       <r>   -27.4546     0.0000    39.0000 </r>
       <r>   -27.2835     0.0000    39.0000 </r>
       <r>   -27.1124     0.0000    39.0000 </r>
       <r>   -26.9412     0.0000    39.0000 </r>
       <r>   -26.7701     0.0000    39.0000 </r>
       <r>   -26.5990     0.0000    39.0000 </r>
       <r>   -26.4279     0.0000    39.0000 </r>
       <r>   -26.2568     0.0000    39.0000 </r>
       <r>   -26.0857     0.0000    39.0000 </r>
       <r>   -25.9146     0.0000    39.0000 </r>
       <r>   -25.7435     0.0000    39.0000 </r>
       <r>   -25.5724     0.0000    39.0000 </r>
       <r>   -25.4012     0.0000    39.0000 </r>
       <r>   -25.2301     0.0000    39.0000 </r>
       <r>   -25.0590     0.0000    39.0000 </r>
       <r>   -24.8879     0.0000    39.0000 </r>
       <r>   -24.7168     0.0000    39.0000 </r>
       <r>   -24.5457     0.0000    39.0000 </r>
       <r>   -24.3746     0.0000    39.0000 </r>
       <r>   -24.2035     0.0000    39.0000 </r>
       <r>   -24.0323     0.0000    39.0000 </r>
       <r>   -23.8612     0.0000    39.0000 </r>
       <r>   -23.6901     0.0000    39.0000 </r>
       <r>   -23.5190     0.0000    39.0000 </r>
       <r>   -23.3479     0.0000    39.0000 </r>
       <r>   -23.1768     0.0000    39.0000 </r>
       <r>   -23.0057     0.0000    39.0000 </r>
       <r>   -22.8346     0.0000    39.0000 </r>
       <r>   -22.6635     0.0000    39.0000 </r>
       <r>   -22.4923     0.0000    39.0000 </r>
       <r>   -22.3212     0.0000    39.0000 </r>
       <r>   -22.1501     0.0000    39.0000 </r>
       <r>   -21.9790     0.0000    39.0000 </r>
       <r>   -21.8079     0.0000    39.0000 </r>
       <r>   -21.6368     0.0000    39.0000 </r>
       <r>   -21.4657     0.0000    39.0000 </r>
       <r>   -21.2946     0.0000    39.0000 </r>
       <r>   -21.1235     0.0000    39.0000 </r>
       <r>   -20.9523     0.0000    39.0000 </r>
       <r>   -20.7812     0.0000    39.0000 </r>
       <r>   -20.6101     0.0000    39.0000 </r>
       <r>   -20.4390     0.0000    39.0000 </r>
       <r>   -20.2679     0.0000    39.0000 </r>
       <r>   -20.0968     0.0000    39.0000 </r>
       <r>   -19.9257     0.0000    39.0000 </r>
       <r>   -19.7546     0.0000    39.0000 </r>
       <r>   -19.5834     0.0000    39.0000 </r>
       <r>   -19.4123     0.0000    39.0000 </r>
       <r>   -19.2412     0.0000    39.0000 </r>
       <r>   -19.0701     0.0000    39.0000 </r>
       <r>   -18.8990     0.0000    39.0000 </r>
       <r>   -18.7279     0.0000    39.0000 </r>
       <r>   -18.5568     0.0000    39.0000 </r>
       <r>   -18.3857     0.0000    39.0000 </r>
       <r>   -18.2146     0.0000    39.0000 </r>
       <r>   -18.0434     0.0000    39.0000 </r>
       <r>   -17.8723     0.0000    39.0000 </r>
       <r>   -17.7012     0.0000    39.0000 </r>
       <r>   -17.5301     0.0000    39.0000 </r>
       <r>   -17.3590     0.0000    39.0000 </r>
       <r>   -17.1879     0.0000    39.0000 </r>
       <r>   -17.0168     0.0000    39.0000 </r>
       <r>   -16.8457     0.0000    39.0000 </r>
       <r>   -16.6746     0.0000    39.0000 </r>
       <r>   -16.5034     0.0000    39.0000 </r>
       <r>   -16.3323     0.0000    39.0000 </r>
       <r>   -16.1612     0.0000    39.0000 </r>
       <r>   -15.9901     0.0000    39.0000 </r>
       <r>   -15.8190     0.0000    39.0000 </r>
       <r>   -15.6479     0.0000    39.0000 </r>
       <r>   -15.4768    29.2207    44.0000 </r>
       <r>   -15.3057     0.0000    44.0000 </r>
       <r>   -15.1345     0.0000    44.0000 </r>
       <r>   -14.9634     0.0000    44.0000 </r>
       <r>   -14.7923     0.0000    44.0000 </r>
       <r>   -14.6212     0.0000    44.0000 </r>
       <r>   -14.4501     0.0000    44.0000 </r>
       <r>   -14.2790     0.0000    44.0000 </r>
       <r>   -14.1079     0.0000    44.0000 </r>
       <r>   -13.9368     0.0000    44.0000 </r>
       <r>   -13.7657     0.0000    44.0000 </r>
       <r>   -13.5945     0.0000    44.0000 </r>
       <r>   -13.4234     0.0000    44.0000 </r>
       <r>   -13.2523     0.0000    44.0000 </r>
       <r>   -13.0812     0.0000    44.0000 </r>
       <r>   -12.9101     0.0000    44.0000 </r>
       <r>   -12.7390     0.0000    44.0000 </r>
       <r>   -12.5679     0.0000    44.0000 </r>
       <r>   -12.3968     0.0000    44.0000 </r>
       <r>   -12.2257     0.0000    44.0000 </r>
       <r>   -12.0545     0.0000    44.0000 </r>
       <r>   -11.8834     0.0000    44.0000 </r>
       <r>   -11.7123     0.0000    44.0000 </r>
       <r>   -11.5412     0.0000    44.0000 </r>
       <r>   -11.3701     0.0000    44.0000 </r>
       <r>   -11.1990     0.0000    44.0000 </r>
       <r>   -11.0279     0.0000    44.0000 </r>
       <r>   -10.8568     0.0000    44.0000 </r>
       <r>   -10.6856     0.0000    44.0000 </r>
       <r>   -10.5145     0.0000    44.0000 </r>
       <r>   -10.3434     0.0000    44.0000 </r>
       <r>   -10.1723     0.0000    44.0000 </r>
       <r>   -10.0012     0.0000    44.0000 </r>
       <r>    -9.8301     0.0000    44.0000 </r>
       <r>    -9.6590     0.0000    44.0000 </r>
       <r>    -9.4879     0.0000    44.0000 </r>
       <r>    -9.3168     0.0000    44.0000 </r>
       <r>    -9.1456     0.0000    44.0000 </r>
       <r>    -8.9745     0.0000    44.0000 </r>
       <r>    -8.8034     0.0000    44.0000 </r>
       <r>    -8.6323     0.0000    44.0000 </r>
       <r>    -8.4612     0.0000    44.0000 </r>
       <r>    -8.2901     0.0000    44.0000 </r>
       <r>    -8.1190     0.0000    44.0000 </r>
       <r>    -7.9479     0.0000    44.0000 </r>
       <r>    -7.7768     0.0000    44.0000 </r>
       <r>    -7.6056     5.8441    45.0000 </r>
       <r>    -7.4345     0.0000    45.0000 </r>
       <r>    -7.2634     0.0000    45.0000 </r>
       <r>    -7.0923     0.3634    45.0046 </r>
       <r>    -6.9212     1.6014    45.2374 </r>
       <r>    -6.7501     1.4816    45.4801 </r>
       <r>    -6.5790     1.5313    45.7555 </r>
       <r>    -6.4079     1.9256    46.0040 </r>
       <r>    -6.2367     1.5908    46.3048 </r>
       <r>    -6.0656     1.2949    46.5492 </r>
       <r>    -5.8945     4.1891    46.9976 </r>
       <r>    -5.7234     3.4167    47.5544 </r>
       <r>    -5.5523     3.9449    48.2268 </r>
       <r>    -5.3812     2.2548    48.6391 </r>
       <r>    -5.2101     3.2079    49.1559 </r>
       <r>    -5.0390     5.9046    49.7758 </r>
       <r>    -4.8679     4.1238    50.7626 </r>
       <r>    -4.6967     3.6847    51.3229 </r>
       <r>    -4.5256     5.2031    52.1648 </r>
       <r>    -4.3545     3.1064    52.6903 </r>
       <r>    -4.1834    11.5752    53.4754 </r>
       <r>    -4.0123     7.7973    55.2969 </r>
       <r>    -3.8412     6.4356    56.3064 </r>
       <r>    -3.6701     7.5247    57.6122 </r>
       <r>    -3.4990     7.7349    58.6296 </r>
       <r>    -3.3279    13.4973    60.8147 </r>
       <r>    -3.1567    21.8401    63.5702 </r>
       <r>    -2.9856    18.7876    66.6853 </r>
       <r>    -2.8145    33.7348    70.7916 </r>
       <r>    -2.6434    17.8374    73.8124 </r>
       <r>    -2.4723    47.6878    77.6341 </r>
       <r>    -2.3012    48.2896    82.5820 </r>
       <r>    -2.1301    48.7514    87.9301 </r>
       <r>    -1.9590    71.0359    93.2910 </r>
       <r>    -1.7878    51.8044    99.9353 </r>
       <r>    -1.6167    60.4043   105.3316 </r>
       <r>    -1.4456    79.2545   112.5083 </r>
       <r>    -1.2745    98.4609   122.1350 </r>
       <r>    -1.1034    70.9981   130.5186 </r>
       <r>    -0.9323    96.8312   138.9620 </r>
       <r>    -0.7612    94.0532   147.7604 </r>
       <r>    -0.5901   114.1809   157.9900 </r>
       <r>    -0.4190   127.7426   169.4353 </r>
       <r>    -0.2478   118.6274   180.1712 </r>
       <r>    -0.0767   127.6805   190.8592 </r>
       <r>     0.0944    95.5851   199.2496 </r>
       <r>     0.2655    82.3163   206.1919 </r>
       <r>     0.4366    57.2583   212.1507 </r>
       <r>     0.6077    31.4840   217.0639 </r>
       <r>     0.7788    45.0597   221.4613 </r>
       <r>     0.9499    63.5800   228.0607 </r>
       <r>     1.1210    78.5203   235.6646 </r>
       <r>     1.2922   101.9860   244.6714 </r>
       <r>     1.4633   113.8090   254.2256 </r>
       <r>     1.6344   116.7006   265.1019 </r>
       <r>     1.8055   121.0153   277.4888 </r>
       <r>     1.9766   120.6893   289.5087 </r>
       <r>     2.1477   165.6057   303.6092 </r>
       <r>     2.3188   189.0633   319.3450 </r>
       <r>     2.4899   206.4882   336.3646 </r>
       <r>     2.6611   138.8484   350.7483 </r>
       <r>     2.8322   103.7349   361.1649 </r>
       <r>     3.0033    53.3537   367.8925 </r>
       <r>     3.1744    20.4658   371.7117 </r>
       <r>     3.3455     0.3653   372.0000 </r>
       <r>     3.5166     0.0000   372.0000 </r>
       <r>     3.6877     0.0000   372.0000 </r>
       <r>     3.8588     0.0000   372.0000 </r>
       <r>     4.0299     0.0000   372.0000 </r>
       <r>     4.2011     0.0000   372.0000 </r>
       <r>     4.3722     0.0000   372.0000 </r>
       <r>     4.5433     0.0000   372.0000 </r>
       <r>     4.7144     0.0000   372.0000 </r>
       <r>     4.8855     0.0000   372.0000 </r>
       <r>     5.0566     0.0000   372.0000 </r>
       <r>     5.2277     0.0000   372.0000 </r>
       <r>     5.3988     0.0000   372.0000 </r>
       <r>     5.5699     0.0000   372.0000 </r>
      </set>
     </set>
    </array>
   </total>
  </dos>
 </calculation>
 <structure name="finalpos" >
  <crystal>
   <varray name="basis" >
    <v>       8.53269958       0.00000000       0.00000000 </v>
    <v>      -0.00051933       8.49699972       0.00000000 </v>
    <v>       0.00000000       0.00000000      23.59499931 </v>
   </varray>
   <i name="volume">   1710.69280467 </i>
   <varray name="rec_basis" >
    <v>       0.11719620       0.00000716       0.00000000 </v>
    <v>       0.00000000       0.11768860       0.00000000 </v>
    <v>       0.00000000       0.00000000       0.04238186 </v>
   </varray>
  </crystal>
  <varray name="positions" >
   <v>       0.00086000       0.99993000       0.24271000 </v>
   <v>       0.16622624       0.16566945       0.30368166 </v>
   <v>       0.50837251       0.17238227       0.30366382 </v>
   <v>       0.66822000       0.00107000       0.24272000 </v>
   <v>       0.83233064       0.17375749       0.30268855 </v>
   <v>       0.00044000       0.33497000       0.24240000 </v>
   <v>       0.16647445       0.50088467       0.30431317 </v>
   <v>       0.33469000       0.33305000       0.24267000 </v>
   <v>       0.50654469       0.49719301       0.30206079 </v>
   <v>       0.82724434       0.49653323       0.30228094 </v>
   <v>       0.16772085       0.83410687       0.30617285 </v>
   <v>       0.33342000       0.66555000       0.24261000 </v>
   <v>       0.83531056       0.83229851       0.30379548 </v>
   <v>       0.00064000       0.00119000       0.00199000 </v>
   <v>       0.98945145       0.00986683       0.36154096 </v>
   <v>       0.16843000       0.16962000       0.06269000 </v>
   <v>       0.33460000       0.00297000       0.00254000 </v>
   <v>       0.34395537       0.01250140       0.36273829 </v>
   <v>       0.50463000       0.16850000       0.06120000 </v>
   <v>       0.83272000       0.16670000       0.06193000 </v>
   <v>       0.00004000       0.33467000       0.00213000 </v>
   <v>       0.00340775       0.33207415       0.36113480 </v>
   <v>       0.16757000       0.49895000       0.06268000 </v>
   <v>       0.50099000       0.49896000       0.06206000 </v>
   <v>       0.83393000       0.50234000       0.06235000 </v>
   <v>       0.00121000       0.66785000       0.00188000 </v>
   <v>       0.98911598       0.65751354       0.36037581 </v>
   <v>       0.16792000       0.83462000       0.06228000 </v>
   <v>       0.33437000       0.66664000       0.00225000 </v>
   <v>       0.34488599       0.65518702       0.36160606 </v>
   <v>       0.50152000       0.83563000       0.06217000 </v>
   <v>       0.66753000       0.66705000       0.00175000 </v>
   <v>       0.66272289       0.67264608       0.36127347 </v>
   <v>       0.83293000       0.83584000       0.06235000 </v>
   <v>       0.00121000       0.00098000       0.12225000 </v>
   <v>       0.16700000       0.16811000       0.18239000 </v>
   <v>       0.33470000       0.00227000       0.12192000 </v>
   <v>       0.50174000       0.16716000       0.18263000 </v>
   <v>       0.83421000       0.16639000       0.18283000 </v>
   <v>       0.16964000       0.49868000       0.18209000 </v>
   <v>       0.50219000       0.50081000       0.18317000 </v>
   <v>       0.66741000       0.33395000       0.12233000 </v>
   <v>       0.83134000       0.50253000       0.18283000 </v>
   <v>       0.00132000       0.66795000       0.12253000 </v>
   <v>       0.16898000       0.83509000       0.18243000 </v>
   <v>       0.33446000       0.66703000       0.12223000 </v>
   <v>       0.49971000       0.83538000       0.18278000 </v>
   <v>       0.66698000       0.66840000       0.12259000 </v>
   <v>       0.83488000       0.83403000       0.18294000 </v>
   <v>       0.33558000       0.99863000       0.24353000 </v>
   <v>       0.66801000       0.33262000       0.24229000 </v>
   <v>       0.00448000       0.66739000       0.24217000 </v>
   <v>       0.49553106       0.83556563       0.30165725 </v>
   <v>       0.66521000       0.67351000       0.24327000 </v>
   <v>       0.66620000       0.99680000       0.00000000 </v>
   <v>       0.66853973       0.99876911       0.36208727 </v>
   <v>       0.33213000       0.33386000       0.00135000 </v>
   <v>       0.33452714       0.33265467       0.36307199 </v>
   <v>       0.67040000       0.33673000       0.00321000 </v>
   <v>       0.66728000       0.99998000       0.12246000 </v>
   <v>       0.99806000       0.33495000       0.12235000 </v>
   <v>       0.33675000       0.33238000       0.12261000 </v>
   <v>       0.16790661       0.83272461       0.43585311 </v>
  </varray>
  <varray name="selective"  type="logical" >
   <v type="logical" >  F  F  F </v>
   <v type="logical" >  T  T  T </v>
   <v type="logical" >  T  T  T </v>
   <v type="logical" >  F  F  F </v>
   <v type="logical" >  T  T  T </v>
   <v type="logical" >  F  F  F </v>
   <v type="logical" >  T  T  T </v>
   <v type="logical" >  F  F  F </v>
   <v type="logical" >  T  T  T </v>
   <v type="logical" >  T  T  T </v>
   <v type="logical" >  T  T  T </v>
   <v type="logical" >  F  F  F </v>
   <v type="logical" >  T  T  T </v>
   <v type="logical" >  F  F  F </v>
   <v type="logical" >  T  T  T </v>
   <v type="logical" >  F  F  F </v>
   <v type="logical" >  F  F  F </v>
   <v type="logical" >  T  T  T </v>
   <v type="logical" >  F  F  F </v>
   <v type="logical" >  F  F  F </v>
   <v type="logical" >  F  F  F </v>
   <v type="logical" >  T  T  T </v>
   <v type="logical" >  F  F  F </v>
   <v type="logical" >  F  F  F </v>
   <v type="logical" >  F  F  F </v>
   <v type="logical" >  F  F  F </v>
   <v type="logical" >  T  T  T </v>
   <v type="logical" >  F  F  F </v>
   <v type="logical" >  F  F  F </v>
   <v type="logical" >  T  T  T </v>
   <v type="logical" >  F  F  F </v>
   <v type="logical" >  F  F  F </v>
   <v type="logical" >  T  T  T </v>
   <v type="logical" >  F  F  F </v>
   <v type="logical" >  F  F  F </v>
   <v type="logical" >  F  F  F </v>
   <v type="logical" >  F  F  F </v>
   <v type="logical" >  F  F  F </v>
   <v type="logical" >  F  F  F </v>
   <v type="logical" >  F  F  F </v>
   <v type="logical" >  F  F  F </v>
   <v type="logical" >  F  F  F </v>
   <v type="logical" >  F  F  F </v>
   <v type="logical" >  F  F  F </v>
   <v type="logical" >  F  F  F </v>
   <v type="logical" >  F  F  F </v>
   <v type="logical" >  F  F  F </v>
   <v type="logical" >  F  F  F </v>
   <v type="logical" >  F  F  F </v>
   <v type="logical" >  F  F  F </v>
   <v type="logical" >  F  F  F </v>
   <v type="logical" >  F  F  F </v>
   <v type="logical" >  T  T  T </v>
   <v type="logical" >  F  F  F </v>
   <v type="logical" >  F  F  F </v>
   <v type="logical" >  T  T  T </v>
   <v type="logical" >  F  F  F </v>
   <v type="logical" >  T  T  T </v>
   <v type="logical" >  F  F  F </v>
   <v type="logical" >  F  F  F </v>
   <v type="logical" >  F  F  F </v>
   <v type="logical" >  F  F  F </v>
   <v type="logical" >  T  T  T </v>
  </varray>
  <nose>
   <v>      -3.00000000       0.00000000       0.00010000       0.00010000 </v>
  </nose>
 </structure>
</modeling>
