  63  63   0   0
  0.2715385E+02  0.8532700E-09  0.8497000E-09  0.2359500E-08  0.5000000E-15
  1.000000000000000E-004
  CAR 
 ni3al                                   
      5.47720766    -45.69107874  301      0.95465700      1.00000000
    -45.691  0.0000E+00  0.0000E+00  0.0000E+00  0.0000E+00
    -45.521  0.0000E+00  0.0000E+00  0.0000E+00  0.0000E+00
    -45.350  0.0000E+00  0.0000E+00  0.0000E+00  0.0000E+00
    -45.179  0.0000E+00  0.0000E+00  0.0000E+00  0.0000E+00
    -45.009  0.0000E+00  0.0000E+00  0.0000E+00  0.0000E+00
    -44.838  0.0000E+00  0.0000E+00  0.0000E+00  0.0000E+00
    -44.668  0.0000E+00 -0.8632E-34  0.0000E+00 -0.1472E-34
    -44.497  0.0000E+00 -0.7770E-26  0.0000E+00 -0.1325E-26
    -44.327  0.0000E+00 -0.5163E-19  0.0000E+00 -0.8806E-20
    -44.156 -0.2301E-34 -0.2432E-13 -0.3924E-35 -0.4148E-14
    -43.985 -0.2876E-26 -0.8492E-09 -0.4905E-27 -0.1448E-09
    -43.815 -0.2686E-19 -0.2110E-05 -0.4582E-20 -0.3600E-06
    -43.644 -0.1810E-13 -0.3567E-03 -0.3088E-14 -0.6120E-04
    -43.474 -0.9198E-09 -0.2632E-02 -0.1569E-09 -0.5101E-03
    -43.303 -0.3373E-05  0.3826E-01 -0.5754E-06  0.6015E-02
    -43.133 -0.8249E-03  0.2123E+00 -0.1413E-03  0.4223E-01
    -42.962 -0.5664E-02  0.1106E+00 -0.1107E-02  0.6108E-01
    -42.792  0.1178E+00  0.1536E-01  0.1899E-01  0.6370E-01
    -42.621  0.1759E+00  0.7039E-01  0.4899E-01  0.7571E-01
    -42.450  0.8142E-02  0.4750E-01  0.5038E-01  0.8381E-01
    -42.280 -0.3926E-02  0.1840E-01  0.4971E-01  0.8695E-01
    -42.109  0.3751E-01  0.1736E-01  0.5611E-01  0.8991E-01
    -41.939  0.8233E-01  0.7989E-03  0.7015E-01  0.9005E-01
    -41.768  0.2139E+00 -0.2679E-03  0.1066E+00  0.9000E-01
    -41.598  0.1176E+00 -0.2293E-05  0.1267E+00  0.9000E-01
    -41.427  0.2148E-01 -0.1100E-08  0.1303E+00  0.9000E-01
    -41.256 -0.1845E-02 -0.6484E-11  0.1300E+00  0.9000E-01
    -41.086 -0.1857E-03 -0.6739E-07  0.1300E+00  0.9000E-01
    -40.915 -0.6264E-06 -0.4789E-04  0.1300E+00  0.8999E-01
    -40.745 -0.2146E-05 -0.1740E-02  0.1300E+00  0.8970E-01
    -40.574 -0.3578E-03  0.1447E-01  0.1299E+00  0.9216E-01
    -40.404  0.1454E-03  0.6537E-01  0.1300E+00  0.1033E+00
    -40.233  0.3178E-01  0.2086E-01  0.1354E+00  0.1069E+00
    -40.063  0.2679E-01  0.3967E-01  0.1400E+00  0.1136E+00
    -39.892  0.6336E-03  0.8336E-01  0.1401E+00  0.1279E+00
    -39.721 -0.3484E-03  0.4910E-01  0.1400E+00  0.1362E+00
    -39.551 -0.3409E-05  0.2164E-01  0.1400E+00  0.1399E+00
    -39.380 -0.1927E-08  0.8076E-03  0.1400E+00  0.1401E+00
    -39.210 -0.7350E-13 -0.3406E-03  0.1400E+00  0.1400E+00
    -39.039  0.0000E+00 -0.3397E-05  0.1400E+00  0.1400E+00
    -38.869  0.0000E+00 -0.1922E-08  0.1400E+00  0.1400E+00
    -38.698  0.0000E+00 -0.7329E-13  0.1400E+00  0.1400E+00
    -38.528  0.0000E+00  0.0000E+00  0.1400E+00  0.1400E+00
    -38.357  0.0000E+00  0.0000E+00  0.1400E+00  0.1400E+00
    -38.186  0.0000E+00  0.0000E+00  0.1400E+00  0.1400E+00
    -38.016  0.0000E+00  0.0000E+00  0.1400E+00  0.1400E+00
    -37.845  0.0000E+00  0.0000E+00  0.1400E+00  0.1400E+00
    -37.675  0.0000E+00  0.0000E+00  0.1400E+00  0.1400E+00
    -37.504  0.0000E+00  0.0000E+00  0.1400E+00  0.1400E+00
    -37.334  0.0000E+00  0.0000E+00  0.1400E+00  0.1400E+00
    -37.163  0.0000E+00  0.0000E+00  0.1400E+00  0.1400E+00
    -36.992  0.0000E+00  0.0000E+00  0.1400E+00  0.1400E+00
    -36.822  0.0000E+00  0.0000E+00  0.1400E+00  0.1400E+00
    -36.651  0.0000E+00  0.0000E+00  0.1400E+00  0.1400E+00
    -36.481  0.0000E+00  0.0000E+00  0.1400E+00  0.1400E+00
    -36.310  0.0000E+00  0.0000E+00  0.1400E+00  0.1400E+00
    -36.140  0.0000E+00  0.0000E+00  0.1400E+00  0.1400E+00
    -35.969  0.0000E+00  0.0000E+00  0.1400E+00  0.1400E+00
    -35.799  0.0000E+00  0.0000E+00  0.1400E+00  0.1400E+00
    -35.628  0.0000E+00  0.0000E+00  0.1400E+00  0.1400E+00
    -35.457  0.0000E+00  0.0000E+00  0.1400E+00  0.1400E+00
    -35.287  0.0000E+00  0.0000E+00  0.1400E+00  0.1400E+00
    -35.116  0.0000E+00  0.0000E+00  0.1400E+00  0.1400E+00
    -34.946  0.0000E+00  0.0000E+00  0.1400E+00  0.1400E+00
    -34.775  0.0000E+00  0.0000E+00  0.1400E+00  0.1400E+00
    -34.605  0.0000E+00  0.0000E+00  0.1400E+00  0.1400E+00
    -34.434  0.0000E+00  0.0000E+00  0.1400E+00  0.1400E+00
    -34.263  0.0000E+00  0.0000E+00  0.1400E+00  0.1400E+00
    -34.093  0.0000E+00  0.0000E+00  0.1400E+00  0.1400E+00
    -33.922  0.0000E+00  0.0000E+00  0.1400E+00  0.1400E+00
    -33.752  0.0000E+00  0.0000E+00  0.1400E+00  0.1400E+00
    -33.581  0.0000E+00  0.0000E+00  0.1400E+00  0.1400E+00
    -33.411  0.0000E+00  0.0000E+00  0.1400E+00  0.1400E+00
    -33.240  0.0000E+00  0.0000E+00  0.1400E+00  0.1400E+00
    -33.070  0.0000E+00  0.0000E+00  0.1400E+00  0.1400E+00
    -32.899  0.0000E+00  0.0000E+00  0.1400E+00  0.1400E+00
    -32.728  0.0000E+00  0.0000E+00  0.1400E+00  0.1400E+00
    -32.558  0.0000E+00  0.0000E+00  0.1400E+00  0.1400E+00
    -32.387  0.0000E+00  0.0000E+00  0.1400E+00  0.1400E+00
    -32.217  0.0000E+00  0.0000E+00  0.1400E+00  0.1400E+00
    -32.046  0.0000E+00  0.0000E+00  0.1400E+00  0.1400E+00
    -31.876  0.0000E+00  0.0000E+00  0.1400E+00  0.1400E+00
    -31.705  0.0000E+00  0.0000E+00  0.1400E+00  0.1400E+00
    -31.535  0.0000E+00  0.0000E+00  0.1400E+00  0.1400E+00
    -31.364  0.0000E+00  0.0000E+00  0.1400E+00  0.1400E+00
    -31.193  0.0000E+00  0.0000E+00  0.1400E+00  0.1400E+00
    -31.023  0.0000E+00  0.0000E+00  0.1400E+00  0.1400E+00
    -30.852  0.0000E+00  0.0000E+00  0.1400E+00  0.1400E+00
    -30.682  0.0000E+00  0.0000E+00  0.1400E+00  0.1400E+00
    -30.511  0.0000E+00  0.0000E+00  0.1400E+00  0.1400E+00
    -30.341  0.0000E+00  0.0000E+00  0.1400E+00  0.1400E+00
    -30.170  0.0000E+00  0.0000E+00  0.1400E+00  0.1400E+00
    -29.999  0.0000E+00  0.0000E+00  0.1400E+00  0.1400E+00
    -29.829  0.0000E+00  0.0000E+00  0.1400E+00  0.1400E+00
    -29.658  0.0000E+00  0.0000E+00  0.1400E+00  0.1400E+00
    -29.488  0.0000E+00  0.0000E+00  0.1400E+00  0.1400E+00
    -29.317  0.0000E+00  0.0000E+00  0.1400E+00  0.1400E+00
    -29.147  0.0000E+00  0.0000E+00  0.1400E+00  0.1400E+00
    -28.976  0.0000E+00  0.0000E+00  0.1400E+00  0.1400E+00
    -28.806  0.0000E+00  0.0000E+00  0.1400E+00  0.1400E+00
    -28.635  0.0000E+00  0.0000E+00  0.1400E+00  0.1400E+00
    -28.464  0.0000E+00  0.0000E+00  0.1400E+00  0.1400E+00
    -28.294  0.0000E+00  0.0000E+00  0.1400E+00  0.1400E+00
    -28.123  0.0000E+00  0.0000E+00  0.1400E+00  0.1400E+00
    -27.953  0.0000E+00  0.0000E+00  0.1400E+00  0.1400E+00
    -27.782  0.0000E+00  0.0000E+00  0.1400E+00  0.1400E+00
    -27.612  0.0000E+00  0.0000E+00  0.1400E+00  0.1400E+00
    -27.441  0.0000E+00  0.0000E+00  0.1400E+00  0.1400E+00
    -27.270  0.0000E+00  0.0000E+00  0.1400E+00  0.1400E+00
    -27.100  0.0000E+00  0.0000E+00  0.1400E+00  0.1400E+00
    -26.929  0.0000E+00  0.0000E+00  0.1400E+00  0.1400E+00
    -26.759  0.0000E+00  0.0000E+00  0.1400E+00  0.1400E+00
    -26.588  0.0000E+00  0.0000E+00  0.1400E+00  0.1400E+00
    -26.418  0.0000E+00  0.0000E+00  0.1400E+00  0.1400E+00
    -26.247  0.0000E+00  0.0000E+00  0.1400E+00  0.1400E+00
    -26.077  0.0000E+00  0.0000E+00  0.1400E+00  0.1400E+00
    -25.906  0.0000E+00  0.0000E+00  0.1400E+00  0.1400E+00
    -25.735  0.0000E+00  0.0000E+00  0.1400E+00  0.1400E+00
    -25.565  0.0000E+00  0.0000E+00  0.1400E+00  0.1400E+00
    -25.394  0.0000E+00  0.0000E+00  0.1400E+00  0.1400E+00
    -25.224  0.0000E+00  0.0000E+00  0.1400E+00  0.1400E+00
    -25.053  0.0000E+00  0.0000E+00  0.1400E+00  0.1400E+00
    -24.883  0.0000E+00  0.0000E+00  0.1400E+00  0.1400E+00
    -24.712  0.0000E+00  0.0000E+00  0.1400E+00  0.1400E+00
    -24.542  0.0000E+00  0.0000E+00  0.1400E+00  0.1400E+00
    -24.371  0.0000E+00  0.0000E+00  0.1400E+00  0.1400E+00
    -24.200  0.0000E+00  0.0000E+00  0.1400E+00  0.1400E+00
    -24.030  0.0000E+00  0.0000E+00  0.1400E+00  0.1400E+00
    -23.859  0.0000E+00  0.0000E+00  0.1400E+00  0.1400E+00
    -23.689  0.0000E+00  0.0000E+00  0.1400E+00  0.1400E+00
    -23.518  0.0000E+00  0.0000E+00  0.1400E+00  0.1400E+00
    -23.348  0.0000E+00  0.0000E+00  0.1400E+00  0.1400E+00
    -23.177  0.0000E+00  0.0000E+00  0.1400E+00  0.1400E+00
    -23.006  0.0000E+00  0.0000E+00  0.1400E+00  0.1400E+00
    -22.836  0.0000E+00  0.0000E+00  0.1400E+00  0.1400E+00
    -22.665  0.0000E+00  0.0000E+00  0.1400E+00  0.1400E+00
    -22.495  0.0000E+00  0.0000E+00  0.1400E+00  0.1400E+00
    -22.324  0.0000E+00  0.0000E+00  0.1400E+00  0.1400E+00
    -22.154  0.0000E+00  0.0000E+00  0.1400E+00  0.1400E+00
    -21.983  0.0000E+00  0.0000E+00  0.1400E+00  0.1400E+00
    -21.813  0.0000E+00  0.0000E+00  0.1400E+00  0.1400E+00
    -21.642  0.0000E+00  0.0000E+00  0.1400E+00  0.1400E+00
    -21.471  0.0000E+00  0.0000E+00  0.1400E+00  0.1400E+00
    -21.301  0.0000E+00  0.0000E+00  0.1400E+00  0.1400E+00
    -21.130  0.0000E+00  0.0000E+00  0.1400E+00  0.1400E+00
    -20.960  0.0000E+00  0.0000E+00  0.1400E+00  0.1400E+00
    -20.789  0.0000E+00  0.0000E+00  0.1400E+00  0.1400E+00
    -20.619  0.0000E+00  0.0000E+00  0.1400E+00  0.1400E+00
    -20.448  0.0000E+00  0.0000E+00  0.1400E+00  0.1400E+00
    -20.277  0.0000E+00  0.0000E+00  0.1400E+00  0.1400E+00
    -20.107  0.0000E+00  0.0000E+00  0.1400E+00  0.1400E+00
    -19.936  0.0000E+00  0.0000E+00  0.1400E+00  0.1400E+00
    -19.766  0.0000E+00  0.0000E+00  0.1400E+00  0.1400E+00
    -19.595  0.0000E+00  0.0000E+00  0.1400E+00  0.1400E+00
    -19.425  0.0000E+00  0.0000E+00  0.1400E+00  0.1400E+00
    -19.254  0.0000E+00  0.0000E+00  0.1400E+00  0.1400E+00
    -19.084  0.0000E+00  0.0000E+00  0.1400E+00  0.1400E+00
    -18.913  0.0000E+00  0.0000E+00  0.1400E+00  0.1400E+00
    -18.742  0.0000E+00  0.0000E+00  0.1400E+00  0.1400E+00
    -18.572  0.0000E+00  0.0000E+00  0.1400E+00  0.1400E+00
    -18.401  0.0000E+00  0.0000E+00  0.1400E+00  0.1400E+00
    -18.231  0.0000E+00  0.0000E+00  0.1400E+00  0.1400E+00
    -18.060  0.0000E+00  0.0000E+00  0.1400E+00  0.1400E+00
    -17.890  0.0000E+00  0.0000E+00  0.1400E+00  0.1400E+00
    -17.719  0.0000E+00  0.0000E+00  0.1400E+00  0.1400E+00
    -17.549  0.0000E+00  0.0000E+00  0.1400E+00  0.1400E+00
    -17.378  0.0000E+00  0.0000E+00  0.1400E+00  0.1400E+00
    -17.207  0.0000E+00  0.0000E+00  0.1400E+00  0.1400E+00
    -17.037  0.0000E+00  0.0000E+00  0.1400E+00  0.1400E+00
    -16.866  0.0000E+00  0.0000E+00  0.1400E+00  0.1400E+00
    -16.696 -0.1392E-32 -0.1779E-31  0.1400E+00  0.1400E+00
    -16.525 -0.9278E-25 -0.8092E-24  0.1400E+00  0.1400E+00
    -16.355 -0.4615E-18 -0.2753E-17  0.1400E+00  0.1400E+00
    -16.184 -0.1644E-12 -0.6736E-12  0.1400E+00  0.1400E+00
    -16.013 -0.4395E-08 -0.1250E-07  0.1400E+00  0.1400E+00
    -15.843 -0.8321E-05 -0.1663E-04  0.1400E+00  0.1400E+00
    -15.672 -0.9630E-03 -0.1328E-02  0.1398E+00  0.1398E+00
    -15.502  0.2768E-02  0.6777E-02  0.1403E+00  0.1409E+00
    -15.331  0.6909E-01  0.7324E-01  0.1521E+00  0.1534E+00
    -15.161  0.2955E-01  0.2143E-01  0.1571E+00  0.1571E+00
    -14.990 -0.2602E-02 -0.2315E-02  0.1567E+00  0.1567E+00
    -14.820 -0.1191E-03 -0.6844E-04  0.1567E+00  0.1567E+00
    -14.649 -0.2497E-06 -0.1034E-06  0.1567E+00  0.1567E+00
    -14.478 -0.3660E-10 -0.1097E-10  0.1567E+00  0.1567E+00
    -14.308 -0.3906E-15 -0.8679E-16  0.1567E+00  0.1567E+00
    -14.137  0.0000E+00  0.0000E+00  0.1567E+00  0.1567E+00
    -13.967  0.0000E+00  0.0000E+00  0.1567E+00  0.1567E+00
    -13.796  0.0000E+00  0.0000E+00  0.1567E+00  0.1567E+00
    -13.626  0.0000E+00  0.0000E+00  0.1567E+00  0.1567E+00
    -13.455  0.0000E+00  0.0000E+00  0.1567E+00  0.1567E+00
    -13.284  0.0000E+00  0.0000E+00  0.1567E+00  0.1567E+00
    -13.114  0.0000E+00  0.0000E+00  0.1567E+00  0.1567E+00
    -12.943  0.0000E+00  0.0000E+00  0.1567E+00  0.1567E+00
    -12.773  0.0000E+00  0.0000E+00  0.1567E+00  0.1567E+00
    -12.602  0.0000E+00  0.0000E+00  0.1567E+00  0.1567E+00
    -12.432  0.0000E+00  0.0000E+00  0.1567E+00  0.1567E+00
    -12.261  0.0000E+00  0.0000E+00  0.1567E+00  0.1567E+00
    -12.091  0.0000E+00  0.0000E+00  0.1567E+00  0.1567E+00
    -11.920  0.0000E+00  0.0000E+00  0.1567E+00  0.1567E+00
    -11.749  0.0000E+00  0.0000E+00  0.1567E+00  0.1567E+00
    -11.579  0.0000E+00  0.0000E+00  0.1567E+00  0.1567E+00
    -11.408  0.0000E+00  0.0000E+00  0.1567E+00  0.1567E+00
    -11.238  0.0000E+00  0.0000E+00  0.1567E+00  0.1567E+00
    -11.067  0.0000E+00  0.0000E+00  0.1567E+00  0.1567E+00
    -10.897  0.0000E+00  0.0000E+00  0.1567E+00  0.1567E+00
    -10.726  0.0000E+00  0.0000E+00  0.1567E+00  0.1567E+00
    -10.556  0.0000E+00  0.0000E+00  0.1567E+00  0.1567E+00
    -10.385  0.0000E+00  0.0000E+00  0.1567E+00  0.1567E+00
    -10.214  0.0000E+00  0.0000E+00  0.1567E+00  0.1567E+00
    -10.044  0.0000E+00  0.0000E+00  0.1567E+00  0.1567E+00
     -9.873  0.0000E+00  0.0000E+00  0.1567E+00  0.1567E+00
     -9.703  0.0000E+00  0.0000E+00  0.1567E+00  0.1567E+00
     -9.532  0.0000E+00  0.0000E+00  0.1567E+00  0.1567E+00
     -9.362  0.0000E+00  0.0000E+00  0.1567E+00  0.1567E+00
     -9.191  0.0000E+00  0.0000E+00  0.1567E+00  0.1567E+00
     -9.020  0.0000E+00  0.0000E+00  0.1567E+00  0.1567E+00
     -8.850  0.0000E+00  0.0000E+00  0.1567E+00  0.1567E+00
     -8.679 -0.1330E-32 -0.3560E-32  0.1567E+00  0.1567E+00
     -8.509 -0.6002E-25 -0.1665E-24  0.1567E+00  0.1567E+00
     -8.338 -0.2073E-18 -0.5982E-18  0.1567E+00  0.1567E+00
     -8.168 -0.5383E-13 -0.1580E-12  0.1567E+00  0.1567E+00
     -7.997 -0.1139E-08 -0.3188E-08  0.1567E+00  0.1567E+00
     -7.827 -0.1898E-05 -0.4504E-05  0.1567E+00  0.1567E+00
     -7.656 -0.2110E-03 -0.3494E-03  0.1566E+00  0.1566E+00
     -7.485  0.6732E-03  0.2198E-02  0.1567E+00  0.1570E+00
     -7.315  0.1451E-01  0.1567E-01  0.1592E+00  0.1597E+00
     -7.144  0.6278E-02  0.2489E-02  0.1603E+00  0.1601E+00
     -6.974  0.5570E-02  0.3093E-02  0.1612E+00  0.1606E+00
     -6.803  0.3846E-02  0.6022E-02  0.1619E+00  0.1616E+00
     -6.633  0.4818E-02  0.2330E-02  0.1627E+00  0.1620E+00
     -6.462  0.8698E-02  0.7433E-02  0.1642E+00  0.1633E+00
     -6.291  0.1209E-02  0.6330E-02  0.1644E+00  0.1644E+00
     -6.121  0.6531E-02  0.5700E-03  0.1655E+00  0.1645E+00
     -5.950  0.1443E-01  0.7655E-02  0.1680E+00  0.1658E+00
     -5.780  0.1104E-01  0.1546E-01  0.1699E+00  0.1684E+00
     -5.609  0.1015E-01  0.8244E-02  0.1716E+00  0.1698E+00
     -5.439  0.1092E-01  0.1082E-01  0.1735E+00  0.1717E+00
     -5.268  0.6289E-02  0.1120E-01  0.1745E+00  0.1736E+00
     -5.098  0.1931E-01  0.4267E-02  0.1778E+00  0.1743E+00
     -4.927  0.1591E-01  0.1704E-01  0.1805E+00  0.1772E+00
     -4.756  0.1625E-01  0.1700E-01  0.1833E+00  0.1801E+00
     -4.586  0.1848E-01  0.1075E-01  0.1865E+00  0.1819E+00
     -4.415  0.2523E-01  0.1492E-01  0.1908E+00  0.1845E+00
     -4.245  0.2763E-01  0.1322E-01  0.1955E+00  0.1867E+00
     -4.074  0.4265E-01  0.2977E-01  0.2028E+00  0.1918E+00
     -3.904  0.6152E-01  0.2228E-01  0.2132E+00  0.1956E+00
     -3.733  0.8916E-01  0.2422E-01  0.2285E+00  0.1998E+00
     -3.563  0.1210E+00  0.2310E-01  0.2491E+00  0.2037E+00
     -3.392  0.1204E+00  0.2738E-01  0.2696E+00  0.2084E+00
     -3.221  0.1666E+00  0.4658E-01  0.2980E+00  0.2163E+00
     -3.051  0.1774E+00  0.5941E-01  0.3283E+00  0.2264E+00
     -2.880  0.1371E+00  0.6687E-01  0.3517E+00  0.2378E+00
     -2.710  0.1443E+00  0.7274E-01  0.3763E+00  0.2503E+00
     -2.539  0.2270E+00  0.6486E-01  0.4150E+00  0.2613E+00
     -2.369  0.2596E+00  0.8450E-01  0.4593E+00  0.2757E+00
     -2.198  0.2262E+00  0.9389E-01  0.4979E+00  0.2917E+00
     -2.027  0.2215E+00  0.9946E-01  0.5357E+00  0.3087E+00
     -1.857  0.2298E+00  0.1125E+00  0.5749E+00  0.3279E+00
     -1.686  0.2246E+00  0.1188E+00  0.6132E+00  0.3481E+00
     -1.516  0.2283E+00  0.1262E+00  0.6521E+00  0.3697E+00
     -1.345  0.2159E+00  0.1491E+00  0.6889E+00  0.3951E+00
     -1.175  0.1715E+00  0.1644E+00  0.7182E+00  0.4231E+00
     -1.004  0.1641E+00  0.1626E+00  0.7462E+00  0.4509E+00
     -0.834  0.1751E+00  0.1679E+00  0.7760E+00  0.4795E+00
     -0.663  0.1896E+00  0.1951E+00  0.8084E+00  0.5128E+00
     -0.492  0.2512E+00  0.2097E+00  0.8512E+00  0.5485E+00
     -0.322  0.3057E+00  0.2209E+00  0.9033E+00  0.5862E+00
     -0.151  0.2949E+00  0.2128E+00  0.9536E+00  0.6225E+00
      0.019  0.2337E+00  0.1872E+00  0.9935E+00  0.6544E+00
      0.190  0.1817E+00  0.1446E+00  0.1024E+01  0.6791E+00
      0.360  0.1559E+00  0.1113E+00  0.1051E+01  0.6981E+00
      0.531  0.1538E+00  0.8788E-01  0.1077E+01  0.7131E+00
      0.702  0.1443E+00  0.9345E-01  0.1102E+01  0.7290E+00
      0.872  0.1126E+00  0.1106E+00  0.1121E+01  0.7479E+00
      1.043  0.9240E-01  0.1281E+00  0.1137E+01  0.7697E+00
      1.213  0.1099E+00  0.1587E+00  0.1156E+01  0.7968E+00
      1.384  0.1241E+00  0.1838E+00  0.1177E+01  0.8282E+00
      1.554  0.1273E+00  0.2030E+00  0.1199E+01  0.8628E+00
      1.725  0.1281E+00  0.2296E+00  0.1220E+01  0.9019E+00
      1.895  0.9080E-01  0.2322E+00  0.1236E+01  0.9415E+00
      2.066  0.6291E-02  0.2470E+00  0.1237E+01  0.9837E+00
      2.237 -0.1522E-02  0.2901E+00  0.1237E+01  0.1033E+01
      2.407 -0.2445E-04  0.3114E+00  0.1237E+01  0.1086E+01
      2.578 -0.2558E-07  0.3229E+00  0.1237E+01  0.1141E+01
      2.748 -0.2021E-11  0.2442E+00  0.1237E+01  0.1183E+01
      2.919 -0.1112E-16  0.1635E+00  0.1237E+01  0.1211E+01
      3.089  0.0000E+00  0.1153E+00  0.1237E+01  0.1231E+01
      3.260  0.0000E+00  0.3878E-01  0.1237E+01  0.1237E+01
      3.430  0.0000E+00 -0.2648E-02  0.1237E+01  0.1237E+01
      3.601  0.0000E+00 -0.2748E-03  0.1237E+01  0.1237E+01
      3.772  0.0000E+00 -0.1122E-05  0.1237E+01  0.1237E+01
      3.942  0.0000E+00 -0.3337E-09  0.1237E+01  0.1237E+01
      4.113  0.0000E+00 -0.7609E-14  0.1237E+01  0.1237E+01
      4.283  0.0000E+00  0.0000E+00  0.1237E+01  0.1237E+01
      4.454  0.0000E+00  0.0000E+00  0.1237E+01  0.1237E+01
      4.624  0.0000E+00  0.0000E+00  0.1237E+01  0.1237E+01
      4.795  0.0000E+00  0.0000E+00  0.1237E+01  0.1237E+01
      4.966  0.0000E+00  0.0000E+00  0.1237E+01  0.1237E+01
      5.136  0.0000E+00  0.0000E+00  0.1237E+01  0.1237E+01
      5.307  0.0000E+00  0.0000E+00  0.1237E+01  0.1237E+01
      5.477  0.0000E+00  0.0000E+00  0.1237E+01  0.1237E+01
