   63   63  300    2
  0.2715385E+02  0.8532700E-09  0.8497000E-09  0.2359500E-08  0.5000000E-15
  1.000000000000000E-004
  CAR 
 ni3al                                   
    566     10    371
 
  0.0000000E+00  0.0000000E+00  0.0000000E+00  0.6250000E-01
      1        -42.837023      -43.365235   1.000000   1.000000
      2        -42.830369      -43.309387   1.000000   1.000000
      3        -42.825752      -43.275383   1.000000   1.000000
      4        -42.813211      -43.253334   1.000000   1.000000
      5        -42.801350      -43.214080   1.000000   1.000000
      6        -42.793566      -43.186985   1.000000   1.000000
      7        -42.782783      -43.184754   1.000000   1.000000
      8        -42.766557      -43.178017   1.000000   1.000000
      9        -42.751691      -43.172944   1.000000   1.000000
     10        -42.744362      -43.172254   1.000000   1.000000
     11        -42.729356      -43.158678   1.000000   1.000000
     12        -42.725312      -43.154598   1.000000   1.000000
     13        -42.717030      -43.153795   1.000000   1.000000
     14        -42.691207      -43.146078   1.000000   1.000000
     15        -42.662771      -43.132604   1.000000   1.000000
     16        -42.175833      -43.124749   1.000000   1.000000
     17        -42.090270      -43.099064   1.000000   1.000000
     18        -42.082071      -43.085054   1.000000   1.000000
     19        -42.069258      -42.828168   1.000000   1.000000
     20        -42.018289      -42.769788   1.000000   1.000000
     21        -42.004492      -42.697834   1.000000   1.000000
     22        -41.859954      -42.678705   1.000000   1.000000
     23        -41.859658      -42.617680   1.000000   1.000000
     24        -41.844288      -42.590719   1.000000   1.000000
     25        -41.837530      -42.559361   1.000000   1.000000
     26        -41.829562      -42.364972   1.000000   1.000000
     27        -41.821485      -42.212026   1.000000   1.000000
     28        -41.819781      -40.546696   1.000000   1.000000
     29        -41.814124      -40.530298   1.000000   1.000000
     30        -41.811047      -40.471375   1.000000   1.000000
     31        -41.809289      -40.463493   1.000000   1.000000
     32        -41.793074      -40.376103   1.000000   1.000000
     33        -41.787763      -40.149045   1.000000   1.000000
     34        -41.787043      -40.072994   1.000000   1.000000
     35        -41.772095      -40.045459   1.000000   1.000000
     36        -41.765664      -40.013238   1.000000   1.000000
     37        -41.633241      -39.946116   1.000000   1.000000
     38        -41.603943      -39.944498   1.000000   1.000000
     39        -41.570283      -39.911710   1.000000   1.000000
     40        -40.287185      -39.820424   1.000000   1.000000
     41        -40.272417      -39.757808   1.000000   1.000000
     42        -40.154601      -39.642955   1.000000   1.000000
     43        -15.415913      -15.439885   1.000000   1.000000
     44        -15.401947      -15.414279   1.000000   1.000000
     45        -15.377724      -15.396133   1.000000   1.000000
     46        -15.355709      -15.373445   1.000000   1.000000
     47        -15.328526      -15.349136   1.000000   1.000000
     48         -7.425177       -7.430284   1.000000   1.000000
     49         -7.170749       -7.096120   1.000000   1.000000
     50         -6.201014       -6.033995   1.000000   1.000000
     51         -5.287907       -5.094664   1.000000   1.000000
     52         -5.245655       -5.072915   1.000000   1.000000
     53         -5.222008       -5.063184   1.000000   1.000000
     54         -5.197110       -5.041967   1.000000   1.000000
     55         -4.906823       -4.591275   1.000000   1.000000
     56         -4.634907       -4.316907   1.000000   1.000000
     57         -4.593282       -4.271985   1.000000   1.000000
     58         -4.565811       -4.235196   1.000000   1.000000
     59         -4.550176       -4.184744   1.000000   1.000000
     60         -4.142299       -3.698108   1.000000   1.000000
     61         -4.127216       -3.687086   1.000000   1.000000
     62         -4.113717       -3.651432   1.000000   1.000000
     63         -4.095829       -3.596241   1.000000   1.000000
     64         -4.063044       -3.516298   1.000000   1.000000
     65         -4.046856       -3.452001   1.000000   1.000000
     66         -4.040552       -3.400020   1.000000   1.000000
     67         -3.985545       -3.342182   1.000000   1.000000
     68         -3.878668       -3.205212   1.000000   1.000000
     69         -3.854401       -2.922352   1.000000   1.000000
     70         -3.736690       -2.874324   1.000000   1.000000
     71         -3.657563       -2.846773   1.000000   1.000000
     72         -3.618305       -2.809726   1.000000   1.000000
     73         -3.610363       -2.791618   1.000000   1.000000
     74         -3.566904       -2.745374   1.000000   1.000000
     75         -3.499202       -2.684702   1.000000   1.000000
     76         -3.453239       -2.672148   1.000000   1.000000
     77         -3.434241       -2.650363   1.000000   1.000000
     78         -3.422897       -2.538684   1.000000   1.000000
     79         -3.405472       -2.414627   1.000000   1.000000
     80         -3.384919       -2.397850   1.000000   1.000000
     81         -3.383044       -2.372342   1.000000   1.000000
     82         -3.348265       -2.348544   1.000000   1.000000
     83         -3.317329       -2.318796   1.000000   1.000000
     84         -3.308386       -2.286151   1.000000   1.000000
     85         -3.300227       -2.263107   1.000000   1.000000
     86         -3.280159       -2.225170   1.000000   1.000000
     87         -3.268629       -2.166753   1.000000   1.000000
     88         -3.262832       -2.124011   1.000000   1.000000
     89         -3.247440       -2.121394   1.000000   1.000000
     90         -3.231238       -2.110489   1.000000   1.000000
     91         -3.214918       -2.067905   1.000000   1.000000
     92         -3.182575       -2.043655   1.000000   1.000000
     93         -3.163396       -2.024122   1.000000   1.000000
     94         -3.136579       -1.987370   1.000000   1.000000
     95         -3.113790       -1.964020   1.000000   1.000000
     96         -3.013394       -1.932034   1.000000   1.000000
     97         -2.989031       -1.880964   1.000000   1.000000
     98         -2.980391       -1.820072   1.000000   1.000000
     99         -2.962575       -1.786592   1.000000   1.000000
    100         -2.950576       -1.781631   1.000000   1.000000
    101         -2.933736       -1.773894   1.000000   1.000000
    102         -2.917286       -1.764890   1.000000   1.000000
    103         -2.907135       -1.699681   1.000000   1.000000
    104         -2.894351       -1.688030   1.000000   1.000000
    105         -2.875120       -1.638011   1.000000   1.000000
    106         -2.854500       -1.623547   1.000000   1.000000
    107         -2.851218       -1.586875   1.000000   1.000000
    108         -2.816751       -1.564758   1.000000   1.000000
    109         -2.785813       -1.553143   1.000000   1.000000
    110         -2.731531       -1.531485   1.000000   1.000000
    111         -2.681222       -1.508617   1.000000   1.000000
    112         -2.668172       -1.468433   1.000000   1.000000
    113         -2.639569       -1.449742   1.000000   1.000000
    114         -2.628085       -1.441623   1.000000   1.000000
    115         -2.599046       -1.421823   1.000000   1.000000
    116         -2.591187       -1.400178   1.000000   1.000000
    117         -2.569875       -1.370518   1.000000   1.000000
    118         -2.558491       -1.343730   1.000000   1.000000
    119         -2.551633       -1.338248   1.000000   1.000000
    120         -2.542303       -1.298818   1.000000   1.000000
    121         -2.517828       -1.293621   1.000000   1.000000
    122         -2.517059       -1.272256   1.000000   1.000000
    123         -2.506683       -1.250239   1.000000   1.000000
    124         -2.492879       -1.238288   1.000000   1.000000
    125         -2.482916       -1.184703   1.000000   1.000000
    126         -2.475205       -1.170751   1.000000   1.000000
    127         -2.468822       -1.150322   1.000000   1.000000
    128         -2.456314       -1.142351   1.000000   1.000000
    129         -2.451749       -1.130687   1.000000   1.000000
    130         -2.436384       -1.124905   1.000000   1.000000
    131         -2.424230       -1.106847   1.000000   1.000000
    132         -2.410565       -1.072342   1.000000   1.000000
    133         -2.400342       -1.056717   1.000000   1.000000
    134         -2.373572       -1.049034   1.000000   1.000000
    135         -2.369572       -1.028208   1.000000   1.000000
    136         -2.362897       -1.006569   1.000000   1.000000
    137         -2.347358       -0.998891   1.000000   1.000000
    138         -2.345747       -0.963961   1.000000   1.000000
    139         -2.331940       -0.955832   1.000000   1.000000
    140         -2.319575       -0.928278   1.000000   1.000000
    141         -2.300374       -0.925400   1.000000   1.000000
    142         -2.298877       -0.912750   1.000000   1.000000
    143         -2.289871       -0.899500   1.000000   1.000000
    144         -2.277686       -0.885864   1.000000   1.000000
    145         -2.268653       -0.863923   1.000000   1.000000
    146         -2.256601       -0.847476   1.000000   1.000000
    147         -2.240348       -0.825728   1.000000   1.000000
    148         -2.232333       -0.811788   1.000000   1.000000
    149         -2.217819       -0.799038   1.000000   1.000000
    150         -2.199816       -0.773726   1.000000   1.000000
    151         -2.191895       -0.763846   1.000000   1.000000
    152         -2.180234       -0.752064   1.000000   1.000000
    153         -2.171369       -0.742991   1.000000   1.000000
    154         -2.141054       -0.716933   1.000000   1.000000
    155         -2.125740       -0.700868   1.000000   1.000000
    156         -2.116725       -0.685991   1.000000   1.000000
    157         -2.107654       -0.674615   1.000000   1.000000
    158         -2.094817       -0.650163   1.000000   1.000000
    159         -2.079115       -0.641849   1.000000   1.000000
    160         -2.077332       -0.603042   1.000000   1.000000
    161         -2.055071       -0.578093   1.000000   1.000000
    162         -2.045939       -0.556967   1.000000   1.000000
    163         -2.024755       -0.545111   1.000000   1.000000
    164         -2.010306       -0.538895   1.000000   1.000000
    165         -1.999117       -0.511571   1.000000   1.000000
    166         -1.979823       -0.497039   1.000000   1.000000
    167         -1.969561       -0.487789   1.000000   1.000000
    168         -1.956813       -0.476204   1.000000   1.000000
    169         -1.934651       -0.457395   1.000000   1.000000
    170         -1.927454       -0.444638   1.000000   1.000000
    171         -1.917519       -0.414281   1.000000   1.000000
    172         -1.885187       -0.405325   1.000000   1.000000
    173         -1.872365       -0.385636   1.000000   1.000000
    174         -1.859028       -0.368956   1.000000   1.000000
    175         -1.849765       -0.355820   1.000000   1.000000
    176         -1.842536       -0.317646   1.000000   1.000000
    177         -1.840254       -0.313767   1.000000   1.000000
    178         -1.826935       -0.298048   1.000000   1.000000
    179         -1.802582       -0.283580   1.000000   1.000000
    180         -1.772906       -0.265611   1.000000   1.000000
    181         -1.766000       -0.253250   1.000000   1.000000
    182         -1.756484       -0.230049   1.000000   1.000000
    183         -1.737896       -0.213014   1.000000   1.000000
    184         -1.720187       -0.206787   1.000000   1.000000
    185         -1.706304       -0.177854   1.000000   1.000000
    186         -1.695267       -0.170985   1.000000   1.000000
    187         -1.676882       -0.152174   1.000000   1.000000
    188         -1.651549       -0.135876   1.000000   1.000000
    189         -1.637102       -0.098898   1.000000   1.000000
    190         -1.626022       -0.083174   1.000000   1.000000
    191         -1.609965       -0.050989   1.000000   1.000000
    192         -1.584953       -0.025646   1.000000   1.000000
    193         -1.562168       -0.020585   1.000000   1.000000
    194         -1.547611        0.004173   1.000000   1.000000
    195         -1.537378        0.030336   1.000000   1.000000
    196         -1.517797        0.086979   1.000000   1.000000
    197         -1.497908        0.115387   1.000000   1.000000
    198         -1.461220        0.126907   1.000000   1.000000
    199         -1.454541        0.162076   1.000000   1.000000
    200         -1.445596        0.172302   1.000000   1.000000
    201         -1.414555        0.204617   1.000000   1.000000
    202         -1.405323        0.245632   1.000000   1.000000
    203         -1.373963        0.256685   1.000000   1.000000
    204         -1.362166        0.264657   1.000000   1.000000
    205         -1.359854        0.284198   1.000000   1.000000
    206         -1.343469        0.294978   1.000000   1.000000
    207         -1.327049        0.318233   1.000000   1.000000
    208         -1.302245        0.342749   1.000000   1.000000
    209         -1.292876        0.355042   1.000000   1.000000
    210         -1.256481        0.378766   1.000000   1.000000
    211         -1.244684        0.422694   1.000000   1.000003
    212         -1.237102        0.431273   1.000000   1.000005
    213         -1.211044        0.471741   1.000000   1.000026
    214         -1.179031        0.505890   1.000000   1.000098
    215         -1.160511        0.532353   1.000000   1.000253
    216         -1.154558        0.540797   1.000000   1.000337
    217         -1.141694        0.595391   1.000000   1.001827
    218         -1.126116        0.602012   1.000000   1.002196
    219         -1.104371        0.625565   1.000000   1.004067
    220         -1.085865        0.646427   1.000000   1.006669
    221         -1.069481        0.675991   1.000000   1.012311
    222         -1.047692        0.727850   1.000000   1.027111
    223         -1.024305        0.741406   1.000000   1.030953
    224         -1.016191        0.748634   1.000000   1.032696
    225         -0.996322        0.777845   1.000000   1.035111
    226         -0.990110        0.816715   1.000000   1.014648
    227         -0.961395        0.859684   1.000000   0.934336
    228         -0.945745        0.878903   1.000000   0.872848
    229         -0.930488        0.913785   1.000000   0.721374
    230         -0.916445        0.920999   1.000000   0.684696
    231         -0.879683        0.982637   1.000000   0.345148
    232         -0.863112        1.050641   1.000000   0.062888
    233         -0.856851        1.085371   1.000000  -0.006132
    234         -0.831627        1.130830   1.000000  -0.035041
    235         -0.810871        1.153892   1.000000  -0.034030
    236         -0.800556        1.164150   1.000000  -0.031895
    237         -0.782822        1.173232   1.000000  -0.029512
    238         -0.763466        1.201395   1.000000  -0.021004
    239         -0.746456        1.205368   1.000000  -0.019810
    240         -0.729952        1.211839   1.000000  -0.017918
    241         -0.709067        1.241803   1.000000  -0.010440
    242         -0.696565        1.249556   1.000000  -0.008909
    243         -0.685847        1.253653   1.000000  -0.008169
    244         -0.664170        1.263351   1.000000  -0.006600
    245         -0.661708        1.267558   1.000000  -0.005996
    246         -0.646400        1.276073   1.000000  -0.004907
    247         -0.636553        1.290311   1.000000  -0.003446
    248         -0.603145        1.317623   1.000000  -0.001645
    249         -0.588577        1.346701   1.000000  -0.000687
    250         -0.577672        1.349908   1.000000  -0.000620
    251         -0.566427        1.360914   1.000000  -0.000434
    252         -0.556001        1.370717   1.000000  -0.000313
    253         -0.544207        1.380739   1.000000  -0.000222
    254         -0.518240        1.407318   1.000000  -0.000085
    255         -0.507218        1.423962   1.000000  -0.000045
    256         -0.501629        1.454475   1.000000  -0.000013
    257         -0.490889        1.468791   1.000000  -0.000007
    258         -0.481970        1.495781   1.000000  -0.000002
    259         -0.470130        1.498273   1.000000  -0.000002
    260         -0.462668        1.503307   1.000000  -0.000001
    261         -0.449622        1.521248   1.000000  -0.000001
    262         -0.439284        1.531571   1.000000  -0.000000
    263         -0.433741        1.562093   1.000000  -0.000000
    264         -0.421492        1.588819   1.000000  -0.000000
    265         -0.415915        1.600676   1.000000  -0.000000
    266         -0.406244        1.614960   1.000000  -0.000000
    267         -0.385837        1.630636   1.000000  -0.000000
    268         -0.380951        1.640549   1.000000  -0.000000
    269         -0.371426        1.651647   1.000000  -0.000000
    270         -0.360647        1.659293   1.000000  -0.000000
    271         -0.350198        1.669158   1.000000  -0.000000
    272         -0.345807        1.697738   1.000000  -0.000000
    273         -0.339139        1.705516   1.000000  -0.000000
    274         -0.329865        1.726598   1.000000  -0.000000
    275         -0.312970        1.744608   1.000000  -0.000000
    276         -0.302841        1.770228   1.000000  -0.000000
    277         -0.292298        1.770778   1.000000  -0.000000
    278         -0.285547        1.781975   1.000000  -0.000000
    279         -0.276299        1.811424   1.000000  -0.000000
    280         -0.267921        1.816429   1.000000  -0.000000
    281         -0.256538        1.840732   1.000000  -0.000000
    282         -0.248944        1.853691   1.000000  -0.000000
    283         -0.241538        1.865478   1.000000  -0.000000
    284         -0.217603        1.876230   1.000000  -0.000000
    285         -0.212795        1.912891   1.000000  -0.000000
    286         -0.205181        1.935582   1.000000  -0.000000
    287         -0.192797        1.948754   1.000000  -0.000000
    288         -0.176406        1.953293   1.000000  -0.000000
    289         -0.168651        1.973559   1.000000  -0.000000
    290         -0.146266        1.993580   1.000000  -0.000000
    291         -0.140546        1.998609   1.000000  -0.000000
    292         -0.127188        2.019136   1.000000  -0.000000
    293         -0.115839        2.021753   1.000000  -0.000000
    294         -0.115385        2.039182   1.000000  -0.000000
    295         -0.093492        2.055716   1.000000  -0.000000
    296         -0.068381        2.063923   1.000000  -0.000000
    297         -0.063880        2.075918   1.000000  -0.000000
    298         -0.044021        2.082391   1.000000  -0.000000
    299         -0.039079        2.091763   1.000000  -0.000000
    300         -0.020878        2.106794   1.000000  -0.000000
    301          0.025284        2.128676   1.000000  -0.000000
    302          0.044035        2.134694   1.000000  -0.000000
    303          0.067224        2.157826   1.000000  -0.000000
    304          0.075011        2.161875   1.000000  -0.000000
    305          0.091535        2.178402   1.000000  -0.000000
    306          0.118153        2.183070   1.000000  -0.000000
    307          0.143059        2.186265   1.000000  -0.000000
    308          0.151925        2.219726   1.000000  -0.000000
    309          0.165449        2.226864   1.000000  -0.000000
    310          0.193825        2.232060   1.000000  -0.000000
    311          0.209068        2.239101   1.000000  -0.000000
    312          0.237251        2.249242   1.000000  -0.000000
    313          0.245830        2.260066   1.000000  -0.000000
    314          0.282159        2.271117   1.000000  -0.000000
    315          0.307473        2.284224   1.000000  -0.000000
    316          0.319870        2.289574   1.000000  -0.000000
    317          0.332843        2.293004   1.000000  -0.000000
    318          0.353365        2.298962   1.000000  -0.000000
    319          0.371918        2.316500   1.000000  -0.000000
    320          0.399145        2.322482   1.000001  -0.000000
    321          0.435660        2.333173   1.000006  -0.000000
    322          0.466064        2.339932   1.000021  -0.000000
    323          0.501270        2.346631   1.000082  -0.000000
    324          0.523410        2.354039   1.000185  -0.000000
    325          0.532282        2.369251   1.000252  -0.000000
    326          0.556342        2.384727   1.000562  -0.000000
    327          0.579292        2.391919   1.001145  -0.000000
    328          0.585688        2.403206   1.001383  -0.000000
    329          0.635452        2.408844   1.005173  -0.000000
    330          0.653121        2.428474   1.007733  -0.000000
    331          0.670910        2.438487   1.011166  -0.000000
    332          0.685088        2.440692   1.014542  -0.000000
    333          0.700165        2.456109   1.018695  -0.000000
    334          0.722360        2.481939   1.025441  -0.000000
    335          0.734796        2.495834   1.029149  -0.000000
    336          0.752478        2.512016   1.033493  -0.000000
    337          0.773597        2.520690   1.035409  -0.000000
    338          0.790459        2.525854   1.032367  -0.000000
    339          0.887306        2.533669   0.840820  -0.000000
    340          0.958354        2.541370   0.479150  -0.000000
    341          0.990915        2.545338   0.301914  -0.000000
    342          1.008254        2.553552   0.217954  -0.000000
    343          1.059468        2.575301   0.040566  -0.000000
    344          1.108836        2.587581  -0.027782  -0.000000
    345          1.137944        2.608014  -0.035457  -0.000000
    346          1.171607        2.619072  -0.029964  -0.000000
    347          1.175419        2.624770  -0.028891  -0.000000
    348          1.209054        2.636481  -0.018723  -0.000000
    349          1.217155        2.645703  -0.016426  -0.000000
    350          1.275945        2.668545  -0.004922  -0.000000
    351          1.305122        2.687188  -0.002330  -0.000000
    352          1.330050        2.697275  -0.001144  -0.000000
    353          1.392325        2.728724  -0.000147  -0.000000
    354          1.424873        2.747017  -0.000043  -0.000000
    355          1.430017        2.769093  -0.000035  -0.000000
    356          1.442133        2.779344  -0.000022  -0.000000
    357          1.458544        2.818935  -0.000011  -0.000000
    358          1.488243        2.829864  -0.000003  -0.000000
    359          1.502889        2.854267  -0.000002  -0.000000
    360          1.524365        2.864990  -0.000001  -0.000000
    361          1.544841        2.905599  -0.000000  -0.000000
    362          1.597296        2.917521  -0.000000  -0.000000
    363          1.620952        2.935303  -0.000000  -0.000000
    364          1.639449        2.992850  -0.000000  -0.000000
    365          1.656996        3.006196  -0.000000  -0.000000
    366          1.709999        3.024427  -0.000000  -0.000000
    367          1.730948        3.050766  -0.000000  -0.000000
    368          1.756263        3.076193  -0.000000  -0.000000
    369          1.761119        3.079315  -0.000000  -0.000000
    370          1.808657        3.096716  -0.000000  -0.000000
    371          1.818447        3.128233  -0.000000  -0.000000
 
  0.2500000E+00  0.6721729E-20  0.0000000E+00  0.1250000E+00
      1        -42.837029      -43.365239   1.000000   1.000000
      2        -42.830362      -43.309386   1.000000   1.000000
      3        -42.825759      -43.275391   1.000000   1.000000
      4        -42.813214      -43.253338   1.000000   1.000000
      5        -42.801354      -43.214083   1.000000   1.000000
      6        -42.793561      -43.186984   1.000000   1.000000
      7        -42.782783      -43.184756   1.000000   1.000000
      8        -42.766558      -43.178012   1.000000   1.000000
      9        -42.751699      -43.172909   1.000000   1.000000
     10        -42.744368      -43.172293   1.000000   1.000000
     11        -42.729382      -43.158671   1.000000   1.000000
     12        -42.725321      -43.154640   1.000000   1.000000
     13        -42.717029      -43.153757   1.000000   1.000000
     14        -42.691206      -43.146088   1.000000   1.000000
     15        -42.662779      -43.132606   1.000000   1.000000
     16        -42.175836      -43.124758   1.000000   1.000000
     17        -42.090287      -43.099062   1.000000   1.000000
     18        -42.082093      -43.085090   1.000000   1.000000
     19        -42.069226      -42.828175   1.000000   1.000000
     20        -42.018286      -42.769796   1.000000   1.000000
     21        -42.004494      -42.697850   1.000000   1.000000
     22        -41.859951      -42.678699   1.000000   1.000000
     23        -41.859637      -42.617697   1.000000   1.000000
     24        -41.844319      -42.590722   1.000000   1.000000
     25        -41.837535      -42.559347   1.000000   1.000000
     26        -41.829551      -42.364978   1.000000   1.000000
     27        -41.821483      -42.212033   1.000000   1.000000
     28        -41.819797      -40.546695   1.000000   1.000000
     29        -41.814120      -40.530308   1.000000   1.000000
     30        -41.811058      -40.471373   1.000000   1.000000
     31        -41.809296      -40.463496   1.000000   1.000000
     32        -41.793077      -40.376108   1.000000   1.000000
     33        -41.787752      -40.149051   1.000000   1.000000
     34        -41.787071      -40.072992   1.000000   1.000000
     35        -41.772104      -40.045476   1.000000   1.000000
     36        -41.765686      -40.013250   1.000000   1.000000
     37        -41.633248      -39.946112   1.000000   1.000000
     38        -41.603939      -39.944498   1.000000   1.000000
     39        -41.570292      -39.911715   1.000000   1.000000
     40        -40.287190      -39.820434   1.000000   1.000000
     41        -40.272426      -39.757814   1.000000   1.000000
     42        -40.154604      -39.642960   1.000000   1.000000
     43        -15.415914      -15.439886   1.000000   1.000000
     44        -15.401947      -15.414279   1.000000   1.000000
     45        -15.377724      -15.396133   1.000000   1.000000
     46        -15.355710      -15.373446   1.000000   1.000000
     47        -15.328525      -15.349135   1.000000   1.000000
     48         -7.384985       -7.409058   1.000000   1.000000
     49         -7.065605       -6.973026   1.000000   1.000000
     50         -6.120788       -5.958129   1.000000   1.000000
     51         -6.011992       -5.875757   1.000000   1.000000
     52         -5.218805       -4.988710   1.000000   1.000000
     53         -5.138248       -4.952829   1.000000   1.000000
     54         -5.077647       -4.910074   1.000000   1.000000
     55         -4.799505       -4.495199   1.000000   1.000000
     56         -4.526673       -4.193983   1.000000   1.000000
     57         -4.493348       -4.172896   1.000000   1.000000
     58         -4.452834       -4.144341   1.000000   1.000000
     59         -4.395381       -4.123479   1.000000   1.000000
     60         -4.367482       -4.072417   1.000000   1.000000
     61         -4.227089       -3.782951   1.000000   1.000000
     62         -4.126405       -3.581157   1.000000   1.000000
     63         -4.027622       -3.395028   1.000000   1.000000
     64         -3.965516       -3.320912   1.000000   1.000000
     65         -3.958996       -3.302967   1.000000   1.000000
     66         -3.881753       -3.288104   1.000000   1.000000
     67         -3.846734       -3.250155   1.000000   1.000000
     68         -3.819660       -3.213589   1.000000   1.000000
     69         -3.793363       -3.175929   1.000000   1.000000
     70         -3.753768       -3.073162   1.000000   1.000000
     71         -3.715394       -2.878965   1.000000   1.000000
     72         -3.653239       -2.829149   1.000000   1.000000
     73         -3.622597       -2.798948   1.000000   1.000000
     74         -3.561301       -2.767638   1.000000   1.000000
     75         -3.546120       -2.646181   1.000000   1.000000
     76         -3.527465       -2.612899   1.000000   1.000000
     77         -3.515260       -2.587991   1.000000   1.000000
     78         -3.486620       -2.563463   1.000000   1.000000
     79         -3.479529       -2.527493   1.000000   1.000000
     80         -3.454646       -2.455413   1.000000   1.000000
     81         -3.425045       -2.448714   1.000000   1.000000
     82         -3.372424       -2.403188   1.000000   1.000000
     83         -3.331814       -2.322044   1.000000   1.000000
     84         -3.299709       -2.314319   1.000000   1.000000
     85         -3.261196       -2.290727   1.000000   1.000000
     86         -3.254538       -2.222635   1.000000   1.000000
     87         -3.245767       -2.194638   1.000000   1.000000
     88         -3.226006       -2.127129   1.000000   1.000000
     89         -3.205381       -2.111474   1.000000   1.000000
     90         -3.200744       -2.052384   1.000000   1.000000
     91         -3.188350       -2.034335   1.000000   1.000000
     92         -3.172766       -2.022054   1.000000   1.000000