       N       E                     dE             d eps       ncg     rms          rms(c)
DAV:   1     0.563345253257E+04    0.56335E+04   -0.24187E+05 15768   0.144E+03
DAV:   2    -0.545519961159E+02   -0.56880E+04   -0.54910E+04 14840   0.424E+02
DAV:   3    -0.516259828063E+03   -0.46171E+03   -0.41011E+03 15218   0.164E+02
DAV:   4    -0.576573080552E+03   -0.60313E+02   -0.56482E+02 26096   0.454E+01
DAV:   5    -0.580089207332E+03   -0.35161E+01   -0.33198E+01 24496   0.108E+01    0.941E+01
DAV:   6    -0.767025133434E+03   -0.18694E+03   -0.42156E+02 27152   0.967E+01    0.157E+02
DAV:   7    -0.680671755237E+03    0.86353E+02   -0.49469E+02 27712   0.117E+02    0.144E+02
DAV:   8    -0.545353663942E+03    0.13532E+03   -0.22055E+02 27328   0.794E+01    0.876E+01
DAV:   9    -0.529819263250E+03    0.15534E+02   -0.74201E+01 25192   0.357E+01    0.677E+01
DAV:  10    -0.519143560944E+03    0.10676E+02   -0.46510E+01 24384   0.273E+01    0.671E+01
DAV:  11    -0.498127392189E+03    0.21016E+02   -0.81764E+01 22312   0.359E+01    0.524E+01
DAV:  12    -0.492401921749E+03    0.57255E+01   -0.43143E+01 22760   0.250E+01    0.400E+01
DAV:  13    -0.491960330351E+03    0.44159E+00   -0.98565E+00 20288   0.133E+01    0.352E+01
DAV:  14    -0.491945542344E+03    0.14788E-01   -0.14978E+00 21232   0.359E+00    0.361E+01
DAV:  15    -0.493029797144E+03   -0.10843E+01   -0.83301E-01 25784   0.254E+00    0.355E+01
DAV:  16    -0.494661245477E+03   -0.16314E+01   -0.28387E+00 26000   0.665E+00    0.329E+01
DAV:  17    -0.498136454209E+03   -0.34752E+01   -0.71145E+00 24112   0.884E+00    0.257E+01
DAV:  18    -0.499316715921E+03   -0.11803E+01   -0.21371E+00 24208   0.455E+00    0.244E+01
DAV:  19    -0.499812524335E+03   -0.49581E+00   -0.68395E-01 24976   0.274E+00    0.233E+01
DAV:  20    -0.500344540950E+03   -0.53202E+00   -0.10223E+00 25968   0.405E+00    0.213E+01
DAV:  21    -0.500490749720E+03   -0.14621E+00   -0.23843E+00 25376   0.686E+00    0.164E+01
DAV:  22    -0.500365199917E+03    0.12555E+00   -0.66441E-01 23192   0.304E+00    0.145E+01
DAV:  23    -0.500390658288E+03   -0.25458E-01   -0.17082E-01 23912   0.154E+00    0.138E+01
DAV:  24    -0.500534036654E+03   -0.14338E+00   -0.44615E-01 25888   0.231E+00    0.122E+01
DAV:  25    -0.500806837998E+03   -0.27280E+00   -0.81214E-01 25184   0.293E+00    0.976E+00
DAV:  26    -0.501130674548E+03   -0.32384E+00   -0.11668E+00 25240   0.274E+00    0.801E+00
DAV:  27    -0.501253737053E+03   -0.12306E+00   -0.40103E-01 25648   0.198E+00    0.668E+00
DAV:  28    -0.501404855694E+03   -0.15112E+00   -0.36541E-01 25264   0.184E+00    0.598E+00
DAV:  29    -0.501495289611E+03   -0.90434E-01   -0.27229E-01 25240   0.166E+00    0.537E+00
DAV:  30    -0.501523549334E+03   -0.28260E-01   -0.15466E-01 24048   0.115E+00    0.476E+00
DAV:  31    -0.501538324129E+03   -0.14775E-01   -0.84656E-02 25624   0.101E+00    0.398E+00
DAV:  32    -0.501582474338E+03   -0.44150E-01   -0.17954E-01 25448   0.129E+00    0.286E+00
DAV:  33    -0.501593260262E+03   -0.10786E-01   -0.72744E-02 25032   0.761E-01    0.241E+00
DAV:  34    -0.501600772814E+03   -0.75126E-02   -0.17500E-02 23880   0.544E-01    0.213E+00
DAV:  35    -0.501614228916E+03   -0.13456E-01   -0.50787E-02 26280   0.736E-01    0.187E+00
DAV:  36    -0.501623105133E+03   -0.88762E-02   -0.51839E-02 25240   0.588E-01    0.144E+00
DAV:  37    -0.501623647558E+03   -0.54243E-03   -0.12231E-02 24016   0.364E-01    0.111E+00
DAV:  38    -0.501622824903E+03    0.82266E-03   -0.55930E-03 25864   0.278E-01    0.911E-01
DAV:  39    -0.501623182038E+03   -0.35714E-03   -0.15926E-02 25480   0.403E-01    0.594E-01
DAV:  40    -0.501623279809E+03   -0.97771E-04   -0.28715E-03 22016   0.189E-01    0.517E-01
DAV:  41    -0.501623786682E+03   -0.50687E-03   -0.18169E-03 24664   0.129E-01    0.482E-01
DAV:  42    -0.501624081502E+03   -0.29482E-03   -0.15348E-03 25120   0.146E-01    0.346E-01
DAV:  43    -0.501624066777E+03    0.14725E-04   -0.11243E-03 25304   0.109E-01    0.234E-01
DAV:  44    -0.501624057175E+03    0.96014E-05   -0.35922E-04 24048   0.641E-02    0.187E-01
DAV:  45    -0.501624107446E+03   -0.50271E-04   -0.25350E-04 23200   0.485E-02    0.139E-01
DAV:  46    -0.501624136875E+03   -0.29430E-04   -0.18663E-04 24432   0.543E-02    0.947E-02
DAV:  47    -0.501624168650E+03   -0.31775E-04   -0.15281E-04 22928   0.379E-02    0.776E-02
DAV:  48    -0.501624163103E+03    0.55473E-05   -0.32249E-05 13888   0.259E-02
   1 F= -.50162416E+03 E0= -.50163390E+03  d E =-.501624E+03  mag=   111.3519
       N       E                     dE             d eps       ncg     rms          rms(c)
DAV:   1    -0.453246664412E+03    0.48378E+02   -0.37586E+03 18214   0.122E+02    0.297E+01
DAV:   2    -0.544315213531E+03   -0.91069E+02   -0.49285E+02 24787   0.593E+01    0.821E+01
DAV:   3    -0.507471959518E+03    0.36843E+02   -0.86446E+01 26280   0.601E+01    0.315E+01
DAV:   4    -0.503779012755E+03    0.36929E+01   -0.26404E+01 27013   0.263E+01    0.170E+01
DAV:   5    -0.503261096549E+03    0.51792E+00   -0.52518E+00 21256   0.111E+01    0.978E+00
DAV:   6    -0.503600885567E+03   -0.33979E+00   -0.12687E+00 22320   0.426E+00    0.936E+00
DAV:   7    -0.503734183692E+03   -0.13330E+00   -0.34886E-01 20744   0.314E+00    0.726E+00
DAV:   8    -0.503928962850E+03   -0.19478E+00   -0.41188E-01 26152   0.290E+00    0.431E+00
DAV:   9    -0.503988903612E+03   -0.59941E-01   -0.15540E-01 22672   0.123E+00    0.325E+00
DAV:  10    -0.503973796148E+03    0.15107E-01   -0.47243E-02 23880   0.108E+00    0.251E+00
DAV:  11    -0.503963031605E+03    0.10765E-01   -0.19860E-02 25632   0.629E-01    0.202E+00
DAV:  12    -0.503955133512E+03    0.78981E-02   -0.23058E-02 26128   0.620E-01    0.162E+00
DAV:  13    -0.503949474314E+03    0.56592E-02   -0.23680E-02 24864   0.533E-01    0.138E+00
DAV:  14    -0.503945955991E+03    0.35183E-02   -0.11409E-02 24856   0.502E-01    0.877E-01
DAV:  15    -0.503946836162E+03   -0.88017E-03   -0.54807E-03 24304   0.313E-01    0.619E-01
DAV:  16    -0.503948324345E+03   -0.14882E-02   -0.33579E-03 24152   0.226E-01    0.547E-01
DAV:  17    -0.503948003315E+03    0.32103E-03   -0.13773E-03 21984   0.188E-01    0.425E-01
DAV:  18    -0.503947531689E+03    0.47163E-03   -0.13570E-03 26400   0.158E-01    0.238E-01
DAV:  19    -0.503947545772E+03   -0.14083E-04   -0.70719E-04 23704   0.904E-02    0.186E-01
DAV:  20    -0.503947593790E+03   -0.48018E-04   -0.23409E-04 23080   0.634E-02    0.177E-01
DAV:  21    -0.503947568638E+03    0.25152E-04   -0.18674E-04 22136   0.560E-02    0.110E-01
DAV:  22    -0.503947550359E+03    0.18279E-04   -0.14126E-04 18904   0.539E-02    0.661E-02
DAV:  23    -0.503947561764E+03   -0.11405E-04   -0.70601E-05 18416   0.242E-02    0.598E-02
DAV:  24    -0.503947563900E+03   -0.21364E-05   -0.23530E-05  9976   0.264E-02
   2 F= -.50394756E+03 E0= -.50395728E+03  d E =-.232340E+01  mag=   110.8123
       N       E                     dE             d eps       ncg     rms          rms(c)
DAV:   1    -0.503561023812E+03    0.38654E+00   -0.38563E+01 20684   0.144E+01    0.261E+00
DAV:   2    -0.503945017509E+03   -0.38399E+00   -0.37737E+00 15740   0.319E+00    0.163E+00
DAV:   3    -0.504162419077E+03   -0.21740E+00   -0.70223E-01 27392   0.383E+00    0.580E+00
DAV:   4    -0.503952226880E+03    0.21019E+00   -0.60888E-01 28096   0.336E+00    0.125E+00
DAV:   5    -0.503962348595E+03   -0.10122E-01   -0.21556E-02 24744   0.550E-01    0.107E+00
DAV:   6    -0.503966356796E+03   -0.40082E-02   -0.11873E-02 23856   0.657E-01    0.843E-01
DAV:   7    -0.503968792679E+03   -0.24359E-02   -0.55408E-03 22264   0.317E-01    0.508E-01
DAV:   8    -0.503968064983E+03    0.72770E-03   -0.17922E-03 24512   0.199E-01    0.324E-01
DAV:   9    -0.503967858573E+03    0.20641E-03   -0.57316E-04 23752   0.832E-02    0.258E-01
DAV:  10    -0.503967700741E+03    0.15783E-03   -0.36134E-04 25136   0.667E-02    0.200E-01
DAV:  11    -0.503967577725E+03    0.12302E-03   -0.42945E-04 24024   0.684E-02    0.150E-01
DAV:  12    -0.503967525328E+03    0.52396E-04   -0.23027E-04 21728   0.631E-02    0.118E-01
DAV:  13    -0.503967536972E+03   -0.11643E-04   -0.13193E-04 21016   0.432E-02    0.102E-01
DAV:  14    -0.503967575085E+03   -0.38113E-04   -0.12455E-04 21872   0.356E-02    0.981E-02
DAV:  15    -0.503967571961E+03    0.31235E-05   -0.30239E-05 12472   0.267E-02
   3 F= -.50396757E+03 E0= -.50397766E+03  d E =-.234341E+01  mag=   110.9332
       N       E                     dE             d eps       ncg     rms          rms(c)
DAV:   1    -0.503957854996E+03    0.97201E-02   -0.10663E+00 20584   0.238E+00    0.401E-01
DAV:   2    -0.503968096886E+03   -0.10242E-01   -0.98251E-02 15696   0.558E-01    0.365E-01
DAV:   3    -0.503973601603E+03   -0.55047E-02   -0.22487E-02 26040   0.724E-01    0.971E-01
DAV:   4    -0.503967878802E+03    0.57228E-02   -0.14183E-02 27773   0.549E-01    0.212E-01
DAV:   5    -0.503968165100E+03   -0.28630E-03   -0.48300E-04 23912   0.868E-02    0.188E-01
DAV:   6    -0.503968393214E+03   -0.22811E-03   -0.50191E-04 24016   0.126E-01    0.169E-01
DAV:   7    -0.503968355425E+03    0.37789E-04   -0.23124E-04 22456   0.771E-02    0.772E-02
DAV:   8    -0.503968338310E+03    0.17115E-04   -0.54752E-05 12552   0.330E-02    0.509E-02
DAV:   9    -0.503968338064E+03    0.24599E-06   -0.27647E-05 12800   0.162E-02
   4 F= -.50396834E+03 E0= -.50397839E+03  d E =-.234417E+01  mag=   110.9120
       N       E                     dE             d eps       ncg     rms          rms(c)
DAV:   1    -0.503799517045E+03    0.16882E+00   -0.26867E+01 15656   0.110E+01    0.257E+00
DAV:   2    -0.504061495281E+03   -0.26198E+00   -0.21202E+00 17580   0.384E+00    0.348E+00
DAV:   3    -0.504100737320E+03   -0.39242E-01   -0.66849E-01 22192   0.419E+00    0.407E+00
DAV:   4    -0.504028769721E+03    0.71968E-01   -0.23378E-01 24309   0.227E+00    0.153E+00
DAV:   5    -0.504039367947E+03   -0.10598E-01   -0.19825E-02 23584   0.716E-01    0.131E+00
DAV:   6    -0.504052546887E+03   -0.13179E-01   -0.26875E-02 23749   0.916E-01    0.869E-01
DAV:   7    -0.504051635135E+03    0.91175E-03   -0.10057E-02 24712   0.510E-01    0.403E-01
DAV:   8    -0.504051767400E+03   -0.13227E-03   -0.20003E-03 23320   0.169E-01    0.401E-01
DAV:   9    -0.504051468071E+03    0.29933E-03   -0.67253E-04 19736   0.126E-01    0.331E-01
DAV:  10    -0.504051101167E+03    0.36690E-03   -0.17156E-03 26144   0.148E-01    0.234E-01
DAV:  11    -0.504050922185E+03    0.17898E-03   -0.71872E-04 22840   0.875E-02    0.168E-01
DAV:  12    -0.504050908543E+03    0.13642E-04   -0.11272E-04 20136   0.394E-02    0.140E-01
DAV:  13    -0.504050927158E+03   -0.18616E-04   -0.22036E-04 23968   0.466E-02    0.821E-02
DAV:  14    -0.504050969118E+03   -0.41959E-04   -0.88610E-05 18608   0.281E-02    0.735E-02
DAV:  15    -0.504050968505E+03    0.61296E-06   -0.16753E-05  9608   0.191E-02
   5 F= -.50405097E+03 E0= -.50406083E+03  d E =-.826304E-01  mag=   111.0400
       N       E                     dE             d eps       ncg     rms          rms(c)
DAV:   1    -0.503750164025E+03    0.30081E+00   -0.35929E+01 15627   0.127E+01    0.300E+00
DAV:   2    -0.504089718411E+03   -0.33955E+00   -0.28253E+00 16944   0.436E+00    0.373E+00
DAV:   3    -0.504181928212E+03   -0.92210E-01   -0.88911E-01 22720   0.487E+00    0.508E+00
DAV:   4    -0.504058548757E+03    0.12338E+00   -0.36442E-01 24856   0.290E+00    0.178E+00
DAV:   5    -0.504073581868E+03   -0.15033E-01   -0.26580E-02 23968   0.805E-01    0.152E+00
DAV:   6    -0.504090810040E+03   -0.17228E-01   -0.38180E-02 23778   0.111E+00    0.108E+00
DAV:   7    -0.504089466772E+03    0.13433E-02   -0.15696E-02 24568   0.642E-01    0.460E-01
DAV:   8    -0.504089634769E+03   -0.16800E-03   -0.27432E-03 22288   0.192E-01    0.447E-01
DAV:   9    -0.504089305967E+03    0.32880E-03   -0.72438E-04 19232   0.132E-01    0.382E-01
DAV:  10    -0.504088757777E+03    0.54819E-03   -0.18343E-03 25856   0.152E-01    0.264E-01
DAV:  11    -0.504088541192E+03    0.21658E-03   -0.89044E-04 22544   0.940E-02    0.197E-01
DAV:  12    -0.504088543441E+03   -0.22485E-05   -0.12947E-04 20256   0.446E-02    0.169E-01
DAV:  13    -0.504088572394E+03   -0.28953E-04   -0.28528E-04 24672   0.574E-02    0.910E-02
DAV:  14    -0.504088624982E+03   -0.52588E-04   -0.11236E-04 20088   0.324E-02    0.771E-02
DAV:  15    -0.504088627538E+03   -0.25561E-05   -0.17766E-05 10256   0.199E-02
   6 F= -.50408863E+03 E0= -.50409830E+03  d E =-.120289E+00  mag=   111.1279
       N       E                     dE             d eps       ncg     rms          rms(c)
DAV:   1    -0.504085964428E+03    0.26606E-02   -0.34320E-01 15655   0.123E+00    0.291E-01
DAV:   2    -0.504088457899E+03   -0.24935E-02   -0.23724E-02 15836   0.344E-01    0.208E-01
DAV:   3    -0.504090481371E+03   -0.20235E-02   -0.54956E-03 27200   0.360E-01    0.562E-01
DAV:   4    -0.504088645112E+03    0.18363E-02   -0.50307E-03 26856   0.332E-01    0.174E-01
DAV:   5    -0.504088830561E+03   -0.18545E-03   -0.31650E-04 23352   0.770E-02    0.141E-01
DAV:   6    -0.504088988332E+03   -0.15777E-03   -0.25814E-04 23464   0.930E-02    0.958E-02
DAV:   7    -0.504088964226E+03    0.24106E-04   -0.10250E-04 17496   0.566E-02    0.513E-02
DAV:   8    -0.504088967847E+03   -0.36216E-05   -0.18398E-05  9712   0.186E-02
   7 F= -.50408897E+03 E0= -.50409864E+03  d E =-.120630E+00  mag=   111.1294
       N       E                     dE             d eps       ncg     rms          rms(c)
DAV:   1    -0.504031131697E+03    0.57833E-01   -0.90596E+00 17007   0.592E+00    0.111E+00
DAV:   2    -0.504101653008E+03   -0.70521E-01   -0.66561E-01 15790   0.167E+00    0.100E+00
DAV:   3    -0.504136507867E+03   -0.34855E-01   -0.13791E-01 25112   0.185E+00    0.244E+00
DAV:   4    -0.504101857731E+03    0.34650E-01   -0.94645E-02 27920   0.141E+00    0.617E-01
DAV:   5    -0.504105002604E+03   -0.31449E-02   -0.44253E-03 25064   0.283E-01    0.510E-01
DAV:   6    -0.504107179065E+03   -0.21765E-02   -0.38319E-03 25784   0.363E-01    0.485E-01
DAV:   7    -0.504106407117E+03    0.77195E-03   -0.33753E-03 24432   0.327E-01    0.159E-01
DAV:   8    -0.504106480499E+03   -0.73382E-04   -0.53379E-04 22656   0.780E-02    0.168E-01
DAV:   9    -0.504106413175E+03    0.67324E-04   -0.13972E-04 17696   0.599E-02    0.125E-01
DAV:  10    -0.504106338994E+03    0.74181E-04   -0.32166E-04 24592   0.652E-02    0.877E-02
DAV:  11    -0.504106335247E+03    0.37466E-05   -0.89901E-05 17760   0.294E-02
   8 F= -.50410634E+03 E0= -.50411606E+03  d E =-.173674E-01  mag=   111.1145
       N       E                     dE             d eps       ncg     rms          rms(c)
DAV:   1    -0.503514394771E+03    0.59194E+00   -0.71654E+01 16940   0.167E+01    0.318E+00
DAV:   2    -0.504129483812E+03   -0.61509E+00   -0.54448E+00 17044   0.516E+00    0.411E+00
DAV:   3    -0.504235875540E+03   -0.10639E+00   -0.11811E+00 23192   0.541E+00    0.531E+00
DAV:   4    -0.504094638802E+03    0.14124E+00   -0.42278E-01 24917   0.311E+00    0.174E+00
DAV:   5    -0.504112040987E+03   -0.17402E-01   -0.31623E-02 23816   0.813E-01    0.148E+00
DAV:   6    -0.504128222020E+03   -0.16181E-01   -0.37140E-02 24912   0.111E+00    0.127E+00
DAV:   7    -0.504125581829E+03    0.26402E-02   -0.18731E-02 25128   0.744E-01    0.517E-01
DAV:   8    -0.504125620058E+03   -0.38229E-04   -0.46792E-03 23584   0.283E-01    0.430E-01
DAV:   9    -0.504125318846E+03    0.30121E-03   -0.11758E-03 17720   0.157E-01    0.361E-01
DAV:  10    -0.504124778623E+03    0.54022E-03   -0.14820E-03 26352   0.136E-01    0.254E-01
DAV:  11    -0.504124525608E+03    0.25302E-03   -0.10856E-03 22920   0.103E-01    0.192E-01
DAV:  12    -0.504124488904E+03    0.36704E-04   -0.20979E-04 22072   0.575E-02    0.163E-01
DAV:  13    -0.504124491082E+03   -0.21786E-05   -0.19533E-04 22976   0.457E-02    0.974E-02
DAV:  14    -0.504124560004E+03   -0.68922E-04   -0.13823E-04 20120   0.435E-02    0.846E-02
DAV:  15    -0.504124572359E+03   -0.12355E-04   -0.54850E-05 15576   0.237E-02    0.798E-02
DAV:  16    -0.504124550321E+03    0.22039E-04   -0.29876E-05  9424   0.312E-02    0.495E-02
DAV:  17    -0.504124557676E+03   -0.73556E-05   -0.71560E-05 15520   0.306E-02
   9 F= -.50412456E+03 E0= -.50413428E+03  d E =-.355898E-01  mag=   111.0595
       N       E                     dE             d eps       ncg     rms          rms(c)
DAV:   1    -0.503863697379E+03    0.26085E+00   -0.21622E+01 18078   0.121E+01    0.236E+00
DAV:   2    -0.504123541147E+03   -0.25984E+00   -0.23896E+00 15854   0.313E+00    0.221E+00
DAV:   3    -0.504274397894E+03   -0.15086E+00   -0.64016E-01 25032   0.397E+00    0.511E+00
DAV:   4    -0.504119537386E+03    0.15486E+00   -0.39198E-01 26808   0.295E+00    0.120E+00
DAV:   5    -0.504133603141E+03   -0.14066E-01   -0.18653E-02 23576   0.578E-01    0.880E-01
DAV:   6    -0.504138812101E+03   -0.52090E-02   -0.68830E-03 22576   0.338E-01    0.513E-01
DAV:   7    -0.504138503475E+03    0.30863E-03   -0.62199E-03 26008   0.425E-01    0.367E-01
DAV:   8    -0.504138281800E+03    0.22168E-03   -0.10290E-03 23256   0.162E-01    0.295E-01
DAV:   9    -0.504138153085E+03    0.12871E-03   -0.34991E-04 21544   0.840E-02    0.253E-01
DAV:  10    -0.504137887842E+03    0.26524E-03   -0.68737E-04 25680   0.106E-01    0.152E-01
DAV:  11    -0.504137884596E+03    0.32461E-05   -0.38550E-04 23568   0.652E-02    0.153E-01
DAV:  12    -0.504137846744E+03    0.37853E-04   -0.14080E-04 21488   0.461E-02    0.121E-01
DAV:  13    -0.504137825485E+03    0.21258E-04   -0.25177E-04 17576   0.779E-02    0.768E-02
DAV:  14    -0.504137874542E+03   -0.49057E-04   -0.16364E-04 21776   0.296E-02    0.914E-02
DAV:  15    -0.504137854712E+03    0.19830E-04   -0.26047E-05  9656   0.296E-02    0.584E-02
DAV:  16    -0.504137851236E+03    0.34769E-05   -0.41223E-05 12064   0.244E-02
  10 F= -.50413785E+03 E0= -.50414773E+03  d E =-.132936E-01  mag=   111.1098
       N       E                     dE             d eps       ncg     rms          rms(c)
DAV:   1    -0.504032083001E+03    0.10577E+00   -0.87131E+00 18166   0.765E+00    0.148E+00
DAV:   2    -0.504132797583E+03   -0.10071E+00   -0.94246E-01 15856   0.189E+00    0.124E+00
DAV:   3    -0.504203550741E+03   -0.70753E-01   -0.25695E-01 25568   0.247E+00    0.341E+00
DAV:   4    -0.504133025192E+03    0.70526E-01   -0.18225E-01 27792   0.198E+00    0.761E-01
DAV:   5    -0.504140061719E+03   -0.70365E-02   -0.89883E-03 25552   0.432E-01    0.585E-01
DAV:   6    -0.504141203285E+03   -0.11416E-02   -0.49000E-03 24696   0.411E-01    0.356E-01
DAV:   7    -0.504141006980E+03    0.19630E-03   -0.16338E-03 24485   0.227E-01    0.180E-01
DAV:   8    -0.504141108710E+03   -0.10173E-03   -0.52806E-04 22912   0.108E-01    0.214E-01
DAV:   9    -0.504140992219E+03    0.11649E-03   -0.22101E-04 19757   0.731E-02    0.154E-01
DAV:  10    -0.504140929236E+03    0.62983E-04   -0.46167E-04 24704   0.856E-02    0.113E-01
DAV:  11    -0.504140940431E+03   -0.11196E-04   -0.14797E-04 19714   0.319E-02    0.116E-01
DAV:  12    -0.504140900962E+03    0.39469E-04   -0.60451E-05 15120   0.401E-02    0.712E-02
DAV:  13    -0.504140905467E+03   -0.45052E-05   -0.11293E-04 15176   0.442E-02    0.484E-02
DAV:  14    -0.504140924657E+03   -0.19190E-04   -0.76160E-05 17640   0.189E-02    0.526E-02
DAV:  15    -0.504140920009E+03    0.46481E-05   -0.86361E-06  8496   0.158E-02
  11 F= -.50414092E+03 E0= -.50415088E+03  d E =-.163623E-01  mag=   111.1339
       N       E                     dE             d eps       ncg     rms          rms(c)
DAV:   1    -0.504135571715E+03    0.53529E-02   -0.44651E-01 18211   0.173E+00    0.338E-01
DAV:   2    -0.504140470142E+03   -0.48984E-02   -0.47006E-02 15926   0.397E-01    0.226E-01
DAV:   3    -0.504143797607E+03   -0.33275E-02   -0.97421E-03 27336   0.463E-01    0.720E-01
DAV:   4    -0.504140636113E+03    0.31615E-02   -0.81496E-03 27616   0.416E-01    0.171E-01
DAV:   5    -0.504141040231E+03   -0.40412E-03   -0.47688E-04 23920   0.109E-01    0.133E-01
DAV:   6    -0.504141038630E+03    0.16013E-05   -0.25583E-04 24304   0.994E-02    0.734E-02
DAV:   7    -0.504141041886E+03   -0.32555E-05   -0.67081E-05 17328   0.397E-02
  12 F= -.50414104E+03 E0= -.50415103E+03  d E =-.164842E-01  mag=   111.1364
       N       E                     dE             d eps       ncg     rms          rms(c)
DAV:   1    -0.504088272019E+03    0.52767E-01   -0.40075E+00 17300   0.564E+00    0.114E+00
DAV:   2    -0.504138118851E+03   -0.49847E-01   -0.47168E-01 15744   0.133E+00    0.767E-01
DAV:   3    -0.504154175016E+03   -0.16056E-01   -0.44855E-02 28056   0.973E-01    0.153E+00
DAV:   4    -0.504141855082E+03    0.12320E-01   -0.45327E-02 27664   0.994E-01    0.697E-01
DAV:   5    -0.504144728984E+03   -0.28739E-02   -0.41758E-03 26840   0.301E-01    0.550E-01
DAV:   6    -0.504145522173E+03   -0.79319E-03   -0.39496E-03 25504   0.377E-01    0.250E-01
DAV:   7    -0.504145570509E+03   -0.48336E-04   -0.10397E-03 22800   0.148E-01    0.160E-01
DAV:   8    -0.504145521322E+03    0.49187E-04   -0.15488E-04 20192   0.538E-02    0.129E-01
DAV:   9    -0.504145477002E+03    0.44319E-04   -0.71713E-05 14912   0.300E-02    0.109E-01
DAV:  10    -0.504145418086E+03    0.58916E-04   -0.17672E-04 22760   0.425E-02    0.704E-02
DAV:  11    -0.504145404306E+03    0.13780E-04   -0.67445E-05 14680   0.253E-02    0.542E-02
DAV:  12    -0.504145407452E+03   -0.31463E-05   -0.20239E-05  9576   0.183E-02
  13 F= -.50414541E+03 E0= -.50415543E+03  d E =-.436557E-02  mag=   111.1712
       N       E                     dE             d eps       ncg     rms          rms(c)
DAV:   1    -0.504078836484E+03    0.66568E-01   -0.47490E+00 17260   0.614E+00    0.126E+00
DAV:   2    -0.504138121957E+03   -0.59285E-01   -0.55979E-01 15744   0.144E+00    0.860E-01
DAV:   3    -0.504172286634E+03   -0.34165E-01   -0.96820E-02 27888   0.147E+00    0.227E+00
DAV:   4    -0.504141499261E+03    0.30787E-01   -0.89759E-02 27856   0.137E+00    0.713E-01
DAV:   5    -0.504145812548E+03   -0.43133E-02   -0.51666E-03 26680   0.321E-01    0.590E-01
DAV:   6    -0.504146852195E+03   -0.10396E-02   -0.49924E-03 25309   0.427E-01    0.307E-01
DAV:   7    -0.504146837392E+03    0.14803E-04   -0.13593E-03 22864   0.180E-01    0.174E-01
DAV:   8    -0.504146786946E+03    0.50447E-04   -0.23368E-04 22768   0.610E-02    0.140E-01
DAV:   9    -0.504146758206E+03    0.28740E-04   -0.93168E-05 17616   0.295E-02    0.123E-01
DAV:  10    -0.504146691309E+03    0.66897E-04   -0.18565E-04 23272   0.510E-02    0.751E-02
DAV:  11    -0.504146681508E+03    0.98009E-05   -0.71614E-05 15472   0.237E-02
  14 F= -.50414668E+03 E0= -.50415674E+03  d E =-.563962E-02  mag=   111.2032
       N       E                     dE             d eps       ncg     rms          rms(c)
DAV:   1    -0.504092747798E+03    0.53944E-01   -0.45561E+00 16742   0.559E+00    0.113E+00
DAV:   2    -0.504142242550E+03   -0.49495E-01   -0.46578E-01 15848   0.146E+00    0.831E-01
DAV:   3    -0.504182064723E+03   -0.39822E-01   -0.12268E-01 26872   0.168E+00    0.250E+00
DAV:   4    -0.504143876241E+03    0.38188E-01   -0.10299E-01 27960   0.146E+00    0.618E-01
DAV:   5    -0.504147786912E+03   -0.39107E-02   -0.47772E-03 24896   0.283E-01    0.485E-01
DAV:   6    -0.504149441068E+03   -0.16542E-02   -0.36204E-03 25288   0.373E-01    0.432E-01
DAV:   7    -0.504148812819E+03    0.62825E-03   -0.21552E-03 23816   0.265E-01    0.166E-01
DAV:   8    -0.504148808567E+03    0.42520E-05   -0.38937E-04 22968   0.697E-02    0.140E-01
DAV:   9    -0.504148789684E+03    0.18883E-04   -0.10132E-04 17472   0.413E-02    0.122E-01
DAV:  10    -0.504148722252E+03    0.67432E-04   -0.26334E-04 23384   0.542E-02    0.728E-02
DAV:  11    -0.504148721388E+03    0.86383E-06   -0.58463E-05 14864   0.206E-02
  15 F= -.50414872E+03 E0= -.50415879E+03  d E =-.203988E-02  mag=   111.2062
       N       E                     dE             d eps       ncg     rms          rms(c)
DAV:   1    -0.504142938369E+03    0.57839E-02   -0.48085E-01 16781   0.182E+00    0.372E-01
DAV:   2    -0.504148310346E+03   -0.53720E-02   -0.49160E-02 15998   0.487E-01    0.343E-01
DAV:   3    -0.504151943822E+03   -0.36335E-02   -0.14879E-02 24920   0.610E-01    0.797E-01
DAV:   4    -0.504148241989E+03    0.37018E-02   -0.96136E-03 27120   0.460E-01    0.204E-01
DAV:   5    -0.504148678129E+03   -0.43614E-03   -0.49569E-04 23512   0.934E-02    0.160E-01
DAV:   6    -0.504148884742E+03   -0.20661E-03   -0.33424E-04 25117   0.111E-01    0.164E-01
DAV:   7    -0.504148778117E+03    0.10662E-03   -0.30590E-04 22992   0.103E-01    0.680E-02
DAV:   8    -0.504148783596E+03   -0.54792E-05   -0.40249E-05 13925   0.239E-02
  16 F= -.50414878E+03 E0= -.50415887E+03  d E =-.210209E-02  mag=   111.2065
       N       E                     dE             d eps       ncg     rms          rms(c)
DAV:   1    -0.504134613311E+03    0.14165E-01   -0.17566E+00 15996   0.278E+00    0.608E-01
DAV:   2    -0.504148550752E+03   -0.13937E-01   -0.12059E-01 15990   0.831E-01    0.642E-01
DAV:   3    -0.504154086021E+03   -0.55353E-02   -0.32375E-02 23560   0.917E-01    0.107E+00
DAV:   4    -0.504148461537E+03    0.56245E-02   -0.17483E-02 25808   0.617E-01    0.366E-01
DAV:   5    -0.504149425929E+03   -0.96439E-03   -0.12435E-03 25680   0.173E-01    0.318E-01
DAV:   6    -0.504150059526E+03   -0.63360E-03   -0.19309E-03 25592   0.249E-01    0.233E-01
DAV:   7    -0.504149857686E+03    0.20184E-03   -0.11079E-03 24480   0.172E-01    0.102E-01
DAV:   8    -0.504149861217E+03   -0.35305E-05   -0.13023E-04 16389   0.374E-02    0.909E-02
DAV:   9    -0.504149837269E+03    0.23948E-04   -0.40008E-05 11576   0.327E-02    0.644E-02
DAV:  10    -0.504149843791E+03   -0.65217E-05   -0.16814E-04 21824   0.290E-02    0.561E-02
DAV:  11    -0.504149836816E+03    0.69744E-05   -0.30412E-05 11568   0.268E-02
  17 F= -.50414984E+03 E0= -.50415983E+03  d E =-.105322E-02  mag=   111.2145
       N       E                     dE             d eps       ncg     rms          rms(c)
DAV:   1    -0.504145698089E+03    0.41457E-02   -0.50131E-01 15978   0.148E+00    0.326E-01
DAV:   2    -0.504149453165E+03   -0.37551E-02   -0.33258E-02 16024   0.424E-01    0.315E-01
DAV:   3    -0.504151509065E+03   -0.20559E-02   -0.93468E-03 23896   0.492E-01    0.615E-01
DAV:   4    -0.504149539178E+03    0.19699E-02   -0.60247E-03 26472   0.360E-01    0.200E-01
DAV:   5    -0.504149788814E+03   -0.24964E-03   -0.35632E-04 24184   0.913E-02    0.169E-01
DAV:   6    -0.504149980473E+03   -0.19166E-03   -0.53518E-04 25240   0.131E-01    0.124E-01
DAV:   7    -0.504149933206E+03    0.47268E-04   -0.29141E-04 22744   0.877E-02    0.553E-02
DAV:   8    -0.504149935955E+03   -0.27494E-05   -0.33591E-05 13560   0.189E-02
  18 F= -.50414994E+03 E0= -.50415985E+03  d E =-.115236E-02  mag=   111.2176
       N       E                     dE             d eps       ncg     rms          rms(c)
DAV:   1    -0.504140477792E+03    0.94554E-02   -0.91298E-01 17266   0.233E+00    0.446E-01
DAV:   2    -0.504149226717E+03   -0.87489E-02   -0.84029E-02 15886   0.592E-01    0.298E-01
DAV:   3    -0.504151759464E+03   -0.25327E-02   -0.74496E-03 27768   0.393E-01    0.614E-01
DAV:   4    -0.504149782444E+03    0.19770E-02   -0.69834E-03 27032   0.393E-01    0.263E-01
DAV:   5    -0.504150246856E+03   -0.46441E-03   -0.64222E-04 23064   0.111E-01    0.144E-01
DAV:   6    -0.504150382254E+03   -0.13540E-03   -0.31002E-04 24568   0.999E-02    0.108E-01
DAV:   7    -0.504150341739E+03    0.40515E-04   -0.19371E-04 21384   0.859E-02    0.662E-02
DAV:   8    -0.504150341643E+03    0.96479E-07   -0.27107E-05 11832   0.234E-02
  19 F= -.50415034E+03 E0= -.50416024E+03  d E =-.405687E-03  mag=   111.2146
       N       E                     dE             d eps       ncg     rms          rms(c)
DAV:   1    -0.504145325097E+03    0.50166E-02   -0.46258E-01 17277   0.166E+00    0.318E-01
DAV:   2    -0.504149971971E+03   -0.46469E-02   -0.42951E-02 15796   0.444E-01    0.303E-01
DAV:   3    -0.504152387644E+03   -0.24157E-02   -0.10532E-02 25136   0.510E-01    0.653E-01
DAV:   4    -0.504149922859E+03    0.24648E-02   -0.66647E-03 26976   0.384E-01    0.187E-01
DAV:   5    -0.504150287602E+03   -0.36474E-03   -0.54162E-04 23392   0.114E-01    0.161E-01
DAV:   6    -0.504150314444E+03   -0.26842E-04   -0.27824E-04 24512   0.939E-02    0.985E-02
DAV:   7    -0.504150304097E+03    0.10347E-04   -0.10170E-04 19832   0.574E-02    0.666E-02
DAV:   8    -0.504150299115E+03    0.49821E-05   -0.25697E-05 10840   0.279E-02
  20 F= -.50415030E+03 E0= -.50416021E+03  d E =-.363160E-03  mag=   111.2123
       N       E                     dE             d eps       ncg     rms          rms(c)
DAV:   1    -0.504143007568E+03    0.72965E-02   -0.83007E-01 16874   0.200E+00    0.381E-01
DAV:   2    -0.504150294199E+03   -0.72866E-02   -0.65127E-02 16052   0.583E-01    0.433E-01
DAV:   3    -0.504152604342E+03   -0.23101E-02   -0.15700E-02 23360   0.637E-01    0.705E-01
DAV:   4    -0.504149957962E+03    0.26464E-02   -0.72402E-03 25296   0.401E-01    0.213E-01
DAV:   5    -0.504150336246E+03   -0.37828E-03   -0.48772E-04 23496   0.979E-02    0.179E-01
DAV:   6    -0.504150590377E+03   -0.25413E-03   -0.53962E-04 24928   0.138E-01    0.172E-01
DAV:   7    -0.504150475165E+03    0.11521E-03   -0.38486E-04 24416   0.108E-01    0.647E-02
DAV:   8    -0.504150482065E+03   -0.69000E-05   -0.57956E-05 16264   0.260E-02
  21 F= -.50415048E+03 E0= -.50416037E+03  d E =-.182950E-03  mag=   111.2065
       N       E                     dE             d eps       ncg     rms          rms(c)
DAV:   1    -0.504149019342E+03    0.14558E-02   -0.16273E-01 16859   0.888E-01    0.170E-01
DAV:   2    -0.504150298263E+03   -0.12789E-02   -0.12420E-02 15754   0.231E-01    0.125E-01
DAV:   3    -0.504150384228E+03   -0.85965E-04   -0.37243E-04 24864   0.605E-02    0.125E-01
DAV:   4    -0.504150484670E+03   -0.10044E-03   -0.54504E-04 14608   0.114E-01    0.173E-01
DAV:   5    -0.504150434417E+03    0.50253E-04   -0.36777E-04 12960   0.103E-01    0.927E-02
DAV:   6    -0.504150450473E+03   -0.16056E-04   -0.90848E-05 15872   0.590E-02    0.620E-02
DAV:   7    -0.504150447774E+03    0.26990E-05   -0.83305E-05 18464   0.324E-02
  22 F= -.50415045E+03 E0= -.50416034E+03  d E =-.148659E-03  mag=   111.2022
       N       E                     dE             d eps       ncg     rms          rms(c)
DAV:   1    -0.504146609338E+03    0.38411E-02   -0.38908E-01 15901   0.150E+00    0.309E-01
DAV:   2    -0.504150247949E+03   -0.36386E-02   -0.32843E-02 15718   0.418E-01    0.293E-01
DAV:   3    -0.504152319207E+03   -0.20713E-02   -0.88721E-03 24352   0.477E-01    0.607E-01
DAV:   4    -0.504150298889E+03    0.20203E-02   -0.59132E-03 26912   0.359E-01    0.186E-01
DAV:   5    -0.504150622293E+03   -0.32340E-03   -0.47071E-04 24216   0.929E-02    0.143E-01
DAV:   6    -0.504150758408E+03   -0.13612E-03   -0.22391E-04 24392   0.882E-02    0.136E-01
DAV:   7    -0.504150672113E+03    0.86296E-04   -0.29501E-04 22088   0.973E-02    0.520E-02
DAV:   8    -0.504150681760E+03   -0.96470E-05   -0.32368E-05 13408   0.181E-02
  23 F= -.50415068E+03 E0= -.50416057E+03  d E =-.233986E-03  mag=   111.1970
