<?xml version="1.0" encoding="ISO-8859-1"?>
<modeling>
 <generator>
  <i name="program" type="string">vasp </i>
  <i name="version" type="string">6.3.2  </i>
  <i name="subversion" type="string">27Jun22 (build Mar 15 2023 15:45:48) complex                          parallel </i>
  <i name="platform" type="string">LinuxIFC </i>
  <i name="date" type="string">2025 02 10 </i>
  <i name="time" type="string">11:01:58 </i>
 </generator>
 <incar>
  <i type="string" name="SYSTEM">ni3al</i>
  <i type="int" name="ISTART">     1</i>
  <i type="string" name="PREC">Accurate</i>
  <i type="string" name="ALGO">Normal</i>
  <i type="int" name="ISPIN">     2</i>
  <i type="int" name="IMIX">     4</i>
  <i name="AMIX">      0.05000000</i>
  <i name="BMIX">      0.00010000</i>
  <i name="AMIN">      0.01000000</i>
  <i type="int" name="ICHARG">     1</i>
  <i type="int" name="NELM">   150</i>
  <i type="int" name="IBRION">     2</i>
  <i name="EDIFF">      0.00001000</i>
  <i name="EDIFFG">     -0.02000000</i>
  <i type="int" name="NSW">   300</i>
  <i type="int" name="ISIF">     2</i>
  <i name="ENCUT">    450.00000000</i>
  <i type="string" name="LREAL">Auto</i>
  <i type="int" name="ISMEAR">     1</i>
  <i name="SIGMA">      0.15000000</i>
  <i type="int" name="LMAXMIX">     4</i>
  <i type="logical" name="LWAVE"> F  </i>
  <i type="logical" name="LCHARG"> F  </i>
  <i type="logical" name="LDIPOL"> T  </i>
  <i type="int" name="IDIPOL">     3</i>
 </incar>
 <primitive_cell>
  <structure name="primitive_cell" >
   <crystal>
    <varray name="basis" >
     <v>       8.53269958       0.00000000       0.00000000 </v>
     <v>      -0.00051933       8.49699972       0.00000000 </v>
     <v>       0.00000000       0.00000000      23.59499931 </v>
    </varray>
    <i name="volume">   1710.69280467 </i>
    <varray name="rec_basis" >
     <v>       0.11719620       0.00000716       0.00000000 </v>
     <v>       0.00000000       0.11768860       0.00000000 </v>
     <v>       0.00000000       0.00000000       0.04238186 </v>
    </varray>
   </crystal>
   <varray name="positions" >
    <v>       0.00086000       0.99993000       0.24271000 </v>
    <v>       0.16518108       0.16628776       0.30293635 </v>
    <v>       0.49952769       0.16150146       0.30051064 </v>
    <v>       0.66822000       0.00107000       0.24272000 </v>
    <v>       0.83540605       0.16719181       0.30201547 </v>
    <v>       0.00044000       0.33497000       0.24240000 </v>
    <v>       0.17003923       0.50377992       0.30438006 </v>
    <v>       0.33469000       0.33305000       0.24267000 </v>
    <v>       0.49794545       0.50692546       0.30261104 </v>
    <v>       0.83350303       0.49977551       0.30155869 </v>
    <v>       0.16980569       0.83135723       0.30448561 </v>
    <v>       0.33342000       0.66555000       0.24261000 </v>
    <v>       0.83563525       0.83323349       0.30207079 </v>
    <v>       0.00064000       0.00119000       0.00199000 </v>
    <v>       0.00169283       0.00134563       0.36016866 </v>
    <v>       0.16843000       0.16962000       0.06269000 </v>
    <v>       0.33460000       0.00297000       0.00254000 </v>
    <v>       0.33298710       0.01077992       0.36233171 </v>
    <v>       0.50463000       0.16850000       0.06120000 </v>
    <v>       0.83272000       0.16670000       0.06193000 </v>
    <v>       0.00004000       0.33467000       0.00213000 </v>
    <v>       0.00330980       0.33456125       0.35986633 </v>
    <v>       0.16757000       0.49895000       0.06268000 </v>
    <v>       0.50099000       0.49896000       0.06206000 </v>
    <v>       0.83393000       0.50234000       0.06235000 </v>
    <v>       0.00121000       0.66785000       0.00188000 </v>
    <v>       0.99397154       0.66457574       0.36058292 </v>
    <v>       0.16792000       0.83462000       0.06228000 </v>
    <v>       0.33437000       0.66664000       0.00225000 </v>
    <v>       0.50152000       0.83563000       0.06217000 </v>
    <v>       0.66753000       0.66705000       0.00175000 </v>
    <v>       0.66771955       0.66560127       0.35896199 </v>
    <v>       0.83293000       0.83584000       0.06235000 </v>
    <v>       0.00121000       0.00098000       0.12225000 </v>
    <v>       0.16700000       0.16811000       0.18239000 </v>
    <v>       0.33470000       0.00227000       0.12192000 </v>
    <v>       0.50174000       0.16716000       0.18263000 </v>
    <v>       0.83421000       0.16639000       0.18283000 </v>
    <v>       0.16964000       0.49868000       0.18209000 </v>
    <v>       0.50219000       0.50081000       0.18317000 </v>
    <v>       0.66741000       0.33395000       0.12233000 </v>
    <v>       0.83134000       0.50253000       0.18283000 </v>
    <v>       0.00132000       0.66795000       0.12253000 </v>
    <v>       0.16898000       0.83509000       0.18243000 </v>
    <v>       0.33446000       0.66703000       0.12223000 </v>
    <v>       0.49971000       0.83538000       0.18278000 </v>
    <v>       0.66698000       0.66840000       0.12259000 </v>
    <v>       0.83488000       0.83403000       0.18294000 </v>
    <v>       0.33558000       0.99863000       0.24353000 </v>
    <v>       0.66801000       0.33262000       0.24229000 </v>
    <v>       0.00448000       0.66739000       0.24217000 </v>
    <v>       0.49700961       0.83449527       0.30353281 </v>
    <v>       0.66521000       0.67351000       0.24327000 </v>
    <v>       0.66620000       0.99680000       0.00000000 </v>
    <v>       0.65741120       0.99737461       0.36440436 </v>
    <v>       0.33213000       0.33386000       0.00135000 </v>
    <v>       0.34161521       0.32741666       0.36244025 </v>
    <v>       0.67040000       0.33673000       0.00321000 </v>
    <v>       0.65913892       0.33109159       0.36693066 </v>
    <v>       0.66728000       0.99998000       0.12246000 </v>
    <v>       0.99806000       0.33495000       0.12235000 </v>
    <v>       0.33675000       0.33238000       0.12261000 </v>
    <v>       0.49952769       0.16150146       0.42000000 </v>
   </varray>
  </structure>
  <varray name="primitive_index" >
   <v type="int" >        1 </v>
   <v type="int" >        2 </v>
   <v type="int" >        3 </v>
   <v type="int" >        4 </v>
   <v type="int" >        5 </v>
   <v type="int" >        6 </v>
   <v type="int" >        7 </v>
   <v type="int" >        8 </v>
   <v type="int" >        9 </v>
   <v type="int" >       10 </v>
   <v type="int" >       11 </v>
   <v type="int" >       12 </v>
   <v type="int" >       13 </v>
   <v type="int" >       14 </v>
   <v type="int" >       15 </v>
   <v type="int" >       16 </v>
   <v type="int" >       17 </v>
   <v type="int" >       18 </v>
   <v type="int" >       19 </v>
   <v type="int" >       20 </v>
   <v type="int" >       21 </v>
   <v type="int" >       22 </v>
   <v type="int" >       23 </v>
   <v type="int" >       24 </v>
   <v type="int" >       25 </v>
   <v type="int" >       26 </v>
   <v type="int" >       27 </v>
   <v type="int" >       28 </v>
   <v type="int" >       29 </v>
   <v type="int" >       30 </v>
   <v type="int" >       31 </v>
   <v type="int" >       32 </v>
   <v type="int" >       33 </v>
   <v type="int" >       34 </v>
   <v type="int" >       35 </v>
   <v type="int" >       36 </v>
   <v type="int" >       37 </v>
   <v type="int" >       38 </v>
   <v type="int" >       39 </v>
   <v type="int" >       40 </v>
   <v type="int" >       41 </v>
   <v type="int" >       42 </v>
   <v type="int" >       43 </v>
   <v type="int" >       44 </v>
   <v type="int" >       45 </v>
   <v type="int" >       46 </v>
   <v type="int" >       47 </v>
   <v type="int" >       48 </v>
   <v type="int" >       49 </v>
   <v type="int" >       50 </v>
   <v type="int" >       51 </v>
   <v type="int" >       52 </v>
   <v type="int" >       53 </v>
   <v type="int" >       54 </v>
   <v type="int" >       55 </v>
   <v type="int" >       56 </v>
   <v type="int" >       57 </v>
   <v type="int" >       58 </v>
   <v type="int" >       59 </v>
   <v type="int" >       60 </v>
   <v type="int" >       61 </v>
   <v type="int" >       62 </v>
   <v type="int" >       63 </v>
  </varray>
 </primitive_cell>
 <kpoints>
  <generation param="Gamma">
   <v type="int" name="divisions">       4        4        1 </v>
   <v name="usershift">      0.00000000       0.00000000       0.00000000 </v>
   <v name="genvec1">      0.25000000       0.00000000       0.00000000 </v>
   <v name="genvec2">      0.00000000       0.25000000       0.00000000 </v>
   <v name="genvec3">      0.00000000       0.00000000       1.00000000 </v>
   <v name="shift">      0.00000000       0.00000000       0.00000000 </v>
  </generation>
  <varray name="kpointlist" >
   <v>       0.00000000       0.00000000       0.00000000 </v>
   <v>       0.25000000       0.00000000       0.00000000 </v>
   <v>       0.50000000       0.00000000       0.00000000 </v>
   <v>       0.00000000       0.25000000       0.00000000 </v>
   <v>       0.25000000       0.25000000       0.00000000 </v>
   <v>       0.50000000       0.25000000       0.00000000 </v>
   <v>      -0.25000000       0.25000000       0.00000000 </v>
   <v>       0.00000000       0.50000000       0.00000000 </v>
   <v>       0.25000000       0.50000000       0.00000000 </v>
   <v>       0.50000000       0.50000000       0.00000000 </v>
  </varray>
  <varray name="weights" >
   <v>       0.06250000 </v>
   <v>       0.12500000 </v>
   <v>       0.06250000 </v>
   <v>       0.12500000 </v>
   <v>       0.12500000 </v>
   <v>       0.12500000 </v>
   <v>       0.12500000 </v>
   <v>       0.06250000 </v>
   <v>       0.12500000 </v>
   <v>       0.06250000 </v>
  </varray>
 </kpoints>
 <parameters>
  <separator name="general" >
   <i type="string" name="SYSTEM">ni3al</i>
   <i type="logical" name="LCOMPAT"> F  </i>
  </separator>
  <separator name="electronic" >
   <i type="string" name="PREC">accura</i>
   <i name="ENMAX">    450.00000000</i>
   <i name="ENAUG">    519.42400000</i>
   <i name="EDIFF">      0.00001000</i>
   <i type="int" name="IALGO">    38</i>
   <i type="int" name="IWAVPR">    11</i>
   <i type="int" name="NBANDS">   371</i>
   <i type="int" name="NBANDSLOW">    -1</i>
   <i type="int" name="NBANDSHIGH">    -1</i>
   <i name="NELECT">    566.00000000</i>
   <i type="int" name="TURBO">     0</i>
   <i type="int" name="IRESTART">     0</i>
   <i type="int" name="NREBOOT">     0</i>
   <i type="int" name="NMIN">     0</i>
   <i name="EREF">      0.00000000</i>
   <separator name="electronic smearing" >
    <i type="int" name="ISMEAR">     1</i>
    <i name="SIGMA">      0.15000000</i>
    <i name="KSPACING">      0.50000000</i>
    <i type="logical" name="KGAMMA"> T  </i>
    <i type="logical" name="KBLOWUP"> T  </i>
   </separator>
   <separator name="electronic projectors" >
    <i type="logical" name="LREAL"> T  </i>
    <v name="ROPT">     -0.00025000     -0.00025000     -0.00025000</v>
    <i type="int" name="LMAXPAW">  -100</i>
    <i type="int" name="LMAXMIX">     4</i>
    <i type="logical" name="NLSPLINE"> F  </i>
   </separator>
   <separator name="electronic startup" >
    <i type="int" name="ISTART">     0</i>
    <i type="int" name="ICHARG">     1</i>
    <i type="int" name="INIWAV">     1</i>
   </separator>
   <separator name="electronic spin" >
    <i type="int" name="ISPIN">     2</i>
    <i type="logical" name="LNONCOLLINEAR"> F  </i>
    <v name="MAGMOM">      1.00000000      1.00000000      1.00000000      1.00000000      1.00000000      1.00000000      1.00000000      1.00000000      1.00000000      1.00000000      1.00000000      1.00000000      1.00000000      1.00000000      1.00000000      1.00000000      1.00000000      1.00000000      1.00000000      1.00000000
      1.00000000      1.00000000      1.00000000      1.00000000      1.00000000      1.00000000      1.00000000      1.00000000      1.00000000      1.00000000      1.00000000      1.00000000      1.00000000      1.00000000      1.00000000      1.00000000      1.00000000      1.00000000      1.00000000      1.00000000
      1.00000000      1.00000000      1.00000000      1.00000000      1.00000000      1.00000000      1.00000000      1.00000000      1.00000000      1.00000000      1.00000000      1.00000000      1.00000000      1.00000000      1.00000000      1.00000000      1.00000000      1.00000000      1.00000000      1.00000000
      1.00000000      1.00000000      1.00000000</v>
    <i name="NUPDOWN">     -1.00000000</i>
    <i type="logical" name="LSORBIT"> F  </i>
    <v name="SAXIS">      0.00000000      0.00000000      1.00000000</v>
    <i type="logical" name="LSPIRAL"> F  </i>
    <v name="QSPIRAL">      0.00000000      0.00000000      0.00000000</v>
    <i type="logical" name="LZEROZ"> F  </i>
   </separator>
   <separator name="electronic exchange-correlation" >
    <i type="logical" name="LASPH"> F  </i>
    <i type="logical" name="LMETAGGA"> F  </i>
   </separator>
   <separator name="electronic convergence" >
    <i type="int" name="NELM">   150</i>
    <i type="int" name="NELMDL">     0</i>
    <i type="int" name="NELMIN">     2</i>
    <i name="ENINI">    450.00000000</i>
    <separator name="electronic convergence detail" >
     <i type="logical" name="LDIAG"> T  </i>
     <i type="logical" name="LSUBROT"> F  </i>
     <i name="WEIMIN">      0.00100000</i>
     <i name="EBREAK">      0.00000001</i>
     <i name="DEPER">      0.30000000</i>
     <i type="int" name="NRMM">     4</i>
     <i name="TIME">      0.40000000</i>
    </separator>
   </separator>
   <separator name="electronic mixer" >
    <i name="AMIX">      0.05000000</i>
    <i name="BMIX">      0.00010000</i>
    <i name="AMIN">      0.01000000</i>
    <i name="AMIX_MAG">      0.20000000</i>
    <i name="BMIX_MAG">      0.00010000</i>
    <separator name="electronic mixer details" >
     <i type="int" name="IMIX">     4</i>
     <i type="logical" name="MIXFIRST"> F  </i>
     <i type="int" name="MAXMIX">   -45</i>
     <i name="WC">    100.00000000</i>
     <i type="int" name="INIMIX">     1</i>
     <i type="int" name="MIXPRE">     1</i>
     <i type="int" name="MREMOVE">     5</i>
    </separator>
   </separator>
   <separator name="electronic dipolcorrection" >
    <i type="logical" name="LDIPOL"> T  </i>
    <i type="logical" name="LMONO"> F  </i>
    <i type="int" name="IDIPOL">     3</i>
    <i name="EPSILON">      1.00000000</i>
    <v name="DIPOL">   -100.00000000   -100.00000000   -100.00000000</v>
    <i name="EFIELD">      0.00000000</i>
   </separator>
  </separator>
  <separator name="grids" >
   <i type="int" name="NGX">    60</i>
   <i type="int" name="NGY">    60</i>
   <i type="int" name="NGZ">   168</i>
   <i type="int" name="NGXF">   120</i>
   <i type="int" name="NGYF">   120</i>
   <i type="int" name="NGZF">   336</i>
   <i type="logical" name="ADDGRID"> F  </i>
  </separator>
  <separator name="ionic" >
   <i type="int" name="NSW">   300</i>
   <i type="int" name="IBRION">     2</i>
   <i type="int" name="MDALGO">     0</i>
   <i type="int" name="ISIF">     2</i>
   <i name="PSTRESS">      0.00000000</i>
   <i name="EDIFFG">     -0.02000000</i>
   <i type="int" name="NFREE">     1</i>
   <i name="POTIM">      0.50000000</i>
   <i name="SMASS">     -3.00000000</i>
   <i name="SCALEE">      1.00000000</i>
  </separator>
  <separator name="ionic md" >
   <i name="TEBEG">      0.00010000</i>
   <i name="TEEND">      0.00010000</i>
   <i type="int" name="NBLOCK">     1</i>
   <i type="int" name="KBLOCK">   300</i>
   <i type="int" name="NPACO">   256</i>
   <i name="APACO">     10.00000000</i>
  </separator>
  <separator name="symmetry" >
   <i type="int" name="ISYM">     2</i>
   <i name="SYMPREC">      0.00001000</i>
  </separator>
  <separator name="dos" >
   <i type="int" name="LORBIT">     0</i>
   <v name="RWIGS">     -1.00000000     -1.00000000     -1.00000000</v>
   <i type="int" name="NEDOS">   301</i>
   <i name="EMIN">     10.00000000</i>
   <i name="EMAX">    -10.00000000</i>
   <i name="EFERMI">      0.00000000</i>
  </separator>
  <separator name="writing" >
   <i type="int" name="NWRITE">     2</i>
   <i type="logical" name="LWAVE"> F  </i>
   <i type="logical" name="LDOWNSAMPLE"> F  </i>
   <i type="logical" name="LCHARG"> F  </i>
   <i type="logical" name="LPARD"> F  </i>
   <i type="logical" name="LVTOT"> F  </i>
   <i type="logical" name="LVHAR"> F  </i>
   <i type="logical" name="LELF"> F  </i>
   <i type="logical" name="LOPTICS"> F  </i>
   <v name="STM">      0.00000000      0.00000000      0.00000000      0.00000000      0.00000000      0.00000000      0.00000000</v>
  </separator>
  <separator name="performance" >
   <i type="int" name="NPAR">     1</i>
   <i type="int" name="NSIM">     4</i>
   <i type="int" name="NBLK">    -1</i>
   <i type="logical" name="LPLANE"> T  </i>
   <i type="logical" name="LSCALAPACK"> T  </i>
   <i type="logical" name="LSCAAWARE"> F  </i>
   <i type="logical" name="LSCALU"> F  </i>
   <i type="logical" name="LASYNC"> F  </i>
   <i type="logical" name="LORBITALREAL"> F  </i>
  </separator>
  <separator name="miscellaneous" >
   <i type="int" name="IDIOT">     3</i>
   <i type="int" name="PHON_NSTRUCT">    -1</i>
   <i type="logical" name="LMUSIC"> F  </i>
   <v name="POMASS">     55.84700000     51.99600000    207.20000000</v>
   <v name="DARWINR">      0.00000000      0.00000000      0.00000000</v>
   <v name="DARWINV">      1.00000000      1.00000000      1.00000000</v>
   <i type="logical" name="LCORR"> T  </i>
  </separator>
  <i type="logical" name="GGA_COMPAT"> T  </i>
  <i type="logical" name="LBERRY"> F  </i>
  <i type="int" name="ICORELEVEL">     0</i>
  <i type="logical" name="LDAU"> F  </i>
  <i type="int" name="I_CONSTRAINED_M">     0</i>
  <separator name="electronic exchange-correlation" >
   <i type="string" name="GGA">--</i>
   <i type="int" name="VOSKOWN">     0</i>
   <i type="logical" name="LHFCALC"> F  </i>
   <i type="string" name="PRECFOCK"></i>
   <i type="logical" name="LSYMGRAD"> F  </i>
   <i type="logical" name="LHFONE"> F  </i>
   <i type="logical" name="LRHFCALC"> F  </i>
   <i type="logical" name="LTHOMAS"> F  </i>
   <i type="logical" name="LMODELHF"> F  </i>
   <i type="logical" name="LFOCKACE"> F  </i>
   <i name="ENCUT4O">     -1.00000000</i>
   <i type="int" name="EXXOEP">     0</i>
   <i type="int" name="FOURORBIT">     0</i>
   <i name="AEXX">      0.00000000</i>
   <i name="HFALPHA">      0.00000000</i>
   <i name="MCALPHA">      0.00000000</i>
   <i name="ALDAX">      1.00000000</i>
   <i name="AGGAX">      1.00000000</i>
   <i name="ALDAC">      1.00000000</i>
   <i name="AGGAC">      1.00000000</i>
   <i type="int" name="NKREDX">     1</i>
   <i type="int" name="NKREDY">     1</i>
   <i type="int" name="NKREDZ">     1</i>
   <i type="logical" name="SHIFTRED"> F  </i>
   <i type="logical" name="ODDONLY"> F  </i>
   <i type="logical" name="EVENONLY"> F  </i>
   <i type="int" name="LMAXFOCK">     0</i>
   <i type="int" name="NMAXFOCKAE">     0</i>
   <i type="logical" name="LFOCKAEDFT"> F  </i>
   <i name="HFSCREEN">      0.00000000</i>
   <i name="HFSCREENC">      0.00000000</i>
   <i type="int" name="NBANDSGWLOW">     0</i>
  </separator>
  <separator name="vdW DFT" >
   <i type="logical" name="LUSE_VDW"> F  </i>
   <i name="Zab_VDW">     -0.84910000</i>
   <i name="PARAM1">      0.12340000</i>
   <i name="PARAM2">      1.00000000</i>
   <i name="PARAM3">      0.00000000</i>
  </separator>
  <separator name="model GW" >
   <i type="int" name="MODEL_GW">     0</i>
   <i name="MODEL_EPS0">     16.29231243</i>
   <i name="MODEL_ALPHA">      1.00000000</i>
  </separator>
  <separator name="linear response parameters" >
   <i type="logical" name="LEPSILON"> F  </i>
   <i type="logical" name="LRPA"> F  </i>
   <i type="logical" name="LNABLA"> F  </i>
   <i type="logical" name="LVEL"> F  </i>
   <i name="CSHIFT">      0.10000000</i>
   <i name="OMEGAMAX">     -1.00000000</i>
   <i name="DEG_THRESHOLD">      0.00200000</i>
   <i name="RTIME">     -0.10000000</i>
   <i name="WPLASMAI">      0.00000000</i>
   <v name="DFIELD">      0.00000000      0.00000000      0.00000000</v>
   <v name="WPLASMA">      0.00000000      0.00000000      0.00000000      0.00000000      0.00000000      0.00000000      0.00000000      0.00000000      0.00000000</v>
  </separator>
  <separator name="orbital magnetization" >
   <i type="logical" name="NUCIND"> F  </i>
   <v name="MAGPOS">      0.00000000      0.00000000      0.00000000</v>
   <i type="logical" name="LNICSALL"> T  </i>
   <i type="logical" name="ORBITALMAG"> F  </i>
   <i type="logical" name="LMAGBLOCH"> F  </i>
   <i type="logical" name="LCHIMAG"> F  </i>
   <i type="logical" name="LGAUGE"> T  </i>
   <i type="int" name="MAGATOM">     0</i>
   <v name="MAGDIPOL">      0.00000000      0.00000000      0.00000000</v>
   <v name="AVECCONST">      0.00000000      0.00000000      0.00000000</v>
  </separator>
  <separator name="response functions" >
   <i type="logical" name="LFINITE_TEMPERATURE"> F  </i>
   <i type="logical" name="LADDER"> F  </i>
   <i type="logical" name="LRPAFORCE"> F  </i>
   <i type="logical" name="LFXC"> F  </i>
   <i type="logical" name="LHARTREE"> T  </i>
   <i type="int" name="IBSE">     0</i>
   <v type="int" name="KPOINT">    -1     0     0     0</v>
   <i type="logical" name="LTCTC"> F  </i>
   <i type="logical" name="LTCTE"> F  </i>
   <i type="logical" name="LTETE"> F  </i>
   <i type="logical" name="LTRIPLET"> F  </i>
   <i type="logical" name="LFXCEPS"> F  </i>
   <i type="logical" name="LFXHEG"> F  </i>
   <i type="int" name="NATURALO">     2</i>
   <i type="logical" name="LHOLEGF"> F  </i>
   <i type="logical" name="L2ORDER"> F  </i>
   <i type="logical" name="LDMP1"> F  </i>
   <i type="logical" name="LMP2LT"> F  </i>
   <i type="logical" name="LSMP2LT"> F  </i>
   <i type="logical" name="LGWLF"> F  </i>
   <i name="ENCUTGW">     -2.00000000</i>
   <i name="ENCUTGWSOFT">     -2.00000000</i>
   <i name="ENCUTLF">     -1.00000000</i>
   <i type="logical" name="LESF_SPLINES"> F  </i>
   <i type="int" name="LMAXMP2">    -1</i>
   <i name="SCISSOR">      0.00000000</i>
   <i type="int" name="NOMEGA">     0</i>
   <i type="int" name="NOMEGAR">     0</i>
   <i type="int" name="NBANDSGW">    -1</i>
   <i type="int" name="NBANDSO">    -1</i>
   <i type="int" name="NBANDSV">    -1</i>
   <i type="int" name="NELMGW">     1</i>
   <i type="int" name="NELMHF">     1</i>
   <i type="int" name="DIM">     3</i>
   <i type="int" name="IESPILON">     4</i>
   <i type="int" name="ANTIRES">     0</i>
   <i name="OMEGAMAX">    -30.00000000</i>
   <i name="OMEGAMIN">    -30.00000000</i>
   <i name="OMEGATL">   -200.00000000</i>
   <i type="int" name="OMEGAGRID">     0</i>
   <i name="CSHIFT">     -0.10000000</i>
   <i type="logical" name="LSELFENERGY"> F  </i>
   <i type="logical" name="LSPECTRAL"> F  </i>
   <i type="logical" name="LSPECTRALGW"> F  </i>
   <i type="logical" name="LSINGLES"> F  </i>
   <i type="logical" name="LFERMIGW"> F  </i>
   <i type="logical" name="ODDONLYGW"> F  </i>
   <i type="logical" name="EVENONLYGW"> F  </i>
   <i type="int" name="NKREDLFX">     1</i>
   <i type="int" name="NKREDLFY">     1</i>
   <i type="int" name="NKREDLFZ">     1</i>
   <i type="int" name="MAXMEM">  2800</i>
   <i type="int" name="TELESCOPE">     0</i>
   <i type="int" name="NTAUPAR">    -1</i>
   <i type="int" name="NOMEGAPAR">    -1</i>
   <i name="DAMP_NEWTON">      0.80000001</i>
   <i name="LAMBDA">      1.00000000</i>
  </separator>
  <separator name="External order field" >
   <i name="OFIELD_KAPPA">      0.00000000</i>
   <v name="OFIELD_K">      0.00000000      0.00000000      0.00000000</v>
   <i name="OFIELD_Q6_NEAR">      0.00000000</i>
   <i name="OFIELD_Q6_FAR">      0.00000000</i>
   <i name="OFIELD_A">      0.00000000</i>
  </separator>
  <separator name="optional k-points parameters" >
   <i type="int" name="KPOINTS_OPT_MODE">     1</i>
   <i type="logical" name="LKPOINTS_OPT"> F  </i>
  </separator>
  <separator name="solvation model" >
   <i type="logical" name="LSOL"> F  </i>
  </separator>
 </parameters>
 <atominfo>
  <atoms>      63 </atoms>
  <types>       3 </types>
  <array name="atoms" >
   <dimension dim="1">ion</dimension>
   <field type="string">element</field>
   <field type="int">atomtype</field>
   <set>
    <rc><c>Fe</c><c>   1</c></rc>
    <rc><c>Fe</c><c>   1</c></rc>
    <rc><c>Fe</c><c>   1</c></rc>
    <rc><c>Fe</c><c>   1</c></rc>
    <rc><c>Fe</c><c>   1</c></rc>
    <rc><c>Fe</c><c>   1</c></rc>
    <rc><c>Fe</c><c>   1</c></rc>
    <rc><c>Fe</c><c>   1</c></rc>
    <rc><c>Fe</c><c>   1</c></rc>
    <rc><c>Fe</c><c>   1</c></rc>
    <rc><c>Fe</c><c>   1</c></rc>
    <rc><c>Fe</c><c>   1</c></rc>
    <rc><c>Fe</c><c>   1</c></rc>
    <rc><c>Fe</c><c>   1</c></rc>
    <rc><c>Fe</c><c>   1</c></rc>
    <rc><c>Fe</c><c>   1</c></rc>
    <rc><c>Fe</c><c>   1</c></rc>
    <rc><c>Fe</c><c>   1</c></rc>
    <rc><c>Fe</c><c>   1</c></rc>
    <rc><c>Fe</c><c>   1</c></rc>
    <rc><c>Fe</c><c>   1</c></rc>
    <rc><c>Fe</c><c>   1</c></rc>
    <rc><c>Fe</c><c>   1</c></rc>
    <rc><c>Fe</c><c>   1</c></rc>
    <rc><c>Fe</c><c>   1</c></rc>
    <rc><c>Fe</c><c>   1</c></rc>
    <rc><c>Fe</c><c>   1</c></rc>
    <rc><c>Fe</c><c>   1</c></rc>
    <rc><c>Fe</c><c>   1</c></rc>
    <rc><c>Fe</c><c>   1</c></rc>
    <rc><c>Fe</c><c>   1</c></rc>
    <rc><c>Fe</c><c>   1</c></rc>
    <rc><c>Fe</c><c>   1</c></rc>
    <rc><c>Fe</c><c>   1</c></rc>
    <rc><c>Fe</c><c>   1</c></rc>
    <rc><c>Fe</c><c>   1</c></rc>
    <rc><c>Fe</c><c>   1</c></rc>
    <rc><c>Fe</c><c>   1</c></rc>
    <rc><c>Fe</c><c>   1</c></rc>
    <rc><c>Fe</c><c>   1</c></rc>
    <rc><c>Fe</c><c>   1</c></rc>
    <rc><c>Fe</c><c>   1</c></rc>
    <rc><c>Fe</c><c>   1</c></rc>
    <rc><c>Fe</c><c>   1</c></rc>
    <rc><c>Fe</c><c>   1</c></rc>
    <rc><c>Fe</c><c>   1</c></rc>
    <rc><c>Fe</c><c>   1</c></rc>
    <rc><c>Fe</c><c>   1</c></rc>
    <rc><c>Cr</c><c>   2</c></rc>
    <rc><c>Cr</c><c>   2</c></rc>
    <rc><c>Cr</c><c>   2</c></rc>
    <rc><c>Cr</c><c>   2</c></rc>
    <rc><c>Cr</c><c>   2</c></rc>
    <rc><c>Cr</c><c>   2</c></rc>
    <rc><c>Cr</c><c>   2</c></rc>
    <rc><c>Cr</c><c>   2</c></rc>
    <rc><c>Cr</c><c>   2</c></rc>
    <rc><c>Cr</c><c>   2</c></rc>
    <rc><c>Cr</c><c>   2</c></rc>
    <rc><c>Cr</c><c>   2</c></rc>
    <rc><c>Cr</c><c>   2</c></rc>
    <rc><c>Cr</c><c>   2</c></rc>
    <rc><c>Pb</c><c>   3</c></rc>
   </set>
  </array>
  <array name="atomtypes" >
   <dimension dim="1">type</dimension>
   <field type="int">atomspertype</field>
   <field type="string">element</field>
   <field>mass</field>
   <field>valence</field>
   <field type="string">pseudopotential</field>
   <set>
    <rc><c>  48</c><c>Fe</c><c>     55.84700000</c><c>      8.00000000</c><c>  PAW_PBE Fe 06Sep2000                  </c></rc>
    <rc><c>  14</c><c>Cr</c><c>     51.99600000</c><c>     12.00000000</c><c>  PAW_PBE Cr_pv 02Aug2007               </c></rc>
    <rc><c>   1</c><c>Pb</c><c>    207.20000000</c><c>     14.00000000</c><c>  PAW_PBE Pb_d 06Sep2000                </c></rc>
   </set>
  </array>
 </atominfo>
 <structure name="initialpos" >
  <crystal>
   <varray name="basis" >
    <v>       8.53269958       0.00000000       0.00000000 </v>
    <v>      -0.00051933       8.49699972       0.00000000 </v>
    <v>       0.00000000       0.00000000      23.59499931 </v>
   </varray>
   <i name="volume">   1710.69280467 </i>
   <varray name="rec_basis" >
    <v>       0.11719620       0.00000716       0.00000000 </v>
    <v>       0.00000000       0.11768860       0.00000000 </v>
    <v>       0.00000000       0.00000000       0.04238186 </v>
   </varray>
  </crystal>
  <varray name="positions" >
   <v>       0.00086000       0.99993000       0.24271000 </v>
   <v>       0.16518108       0.16628776       0.30293635 </v>
   <v>       0.49952769       0.16150146       0.30051064 </v>
   <v>       0.66822000       0.00107000       0.24272000 </v>
   <v>       0.83540605       0.16719181       0.30201547 </v>
   <v>       0.00044000       0.33497000       0.24240000 </v>
   <v>       0.17003923       0.50377992       0.30438006 </v>
   <v>       0.33469000       0.33305000       0.24267000 </v>
   <v>       0.49794545       0.50692546       0.30261104 </v>
   <v>       0.83350303       0.49977551       0.30155869 </v>
   <v>       0.16980569       0.83135723       0.30448561 </v>
   <v>       0.33342000       0.66555000       0.24261000 </v>
   <v>       0.83563525       0.83323349       0.30207079 </v>
   <v>       0.00064000       0.00119000       0.00199000 </v>
   <v>       0.00169283       0.00134563       0.36016866 </v>
   <v>       0.16843000       0.16962000       0.06269000 </v>
   <v>       0.33460000       0.00297000       0.00254000 </v>
   <v>       0.33298710       0.01077992       0.36233171 </v>
   <v>       0.50463000       0.16850000       0.06120000 </v>
   <v>       0.83272000       0.16670000       0.06193000 </v>
   <v>       0.00004000       0.33467000       0.00213000 </v>
   <v>       0.00330980       0.33456125       0.35986633 </v>
   <v>       0.16757000       0.49895000       0.06268000 </v>
   <v>       0.50099000       0.49896000       0.06206000 </v>
   <v>       0.83393000       0.50234000       0.06235000 </v>
   <v>       0.00121000       0.66785000       0.00188000 </v>
   <v>       0.99397154       0.66457574       0.36058292 </v>
   <v>       0.16792000       0.83462000       0.06228000 </v>
   <v>       0.33437000       0.66664000       0.00225000 </v>
   <v>       0.50152000       0.83563000       0.06217000 </v>
   <v>       0.66753000       0.66705000       0.00175000 </v>
   <v>       0.66771955       0.66560127       0.35896199 </v>
   <v>       0.83293000       0.83584000       0.06235000 </v>
   <v>       0.00121000       0.00098000       0.12225000 </v>
   <v>       0.16700000       0.16811000       0.18239000 </v>
   <v>       0.33470000       0.00227000       0.12192000 </v>
   <v>       0.50174000       0.16716000       0.18263000 </v>
   <v>       0.83421000       0.16639000       0.18283000 </v>
   <v>       0.16964000       0.49868000       0.18209000 </v>
   <v>       0.50219000       0.50081000       0.18317000 </v>
   <v>       0.66741000       0.33395000       0.12233000 </v>
   <v>       0.83134000       0.50253000       0.18283000 </v>
   <v>       0.00132000       0.66795000       0.12253000 </v>
   <v>       0.16898000       0.83509000       0.18243000 </v>
   <v>       0.33446000       0.66703000       0.12223000 </v>
   <v>       0.49971000       0.83538000       0.18278000 </v>
   <v>       0.66698000       0.66840000       0.12259000 </v>
   <v>       0.83488000       0.83403000       0.18294000 </v>
   <v>       0.33558000       0.99863000       0.24353000 </v>
   <v>       0.66801000       0.33262000       0.24229000 </v>
   <v>       0.00448000       0.66739000       0.24217000 </v>
   <v>       0.49700961       0.83449527       0.30353281 </v>
   <v>       0.66521000       0.67351000       0.24327000 </v>
   <v>       0.66620000       0.99680000       0.00000000 </v>
   <v>       0.65741120       0.99737461       0.36440436 </v>
   <v>       0.33213000       0.33386000       0.00135000 </v>
   <v>       0.34161521       0.32741666       0.36244025 </v>
   <v>       0.67040000       0.33673000       0.00321000 </v>
   <v>       0.65913892       0.33109159       0.36693066 </v>
   <v>       0.66728000       0.99998000       0.12246000 </v>
   <v>       0.99806000       0.33495000       0.12235000 </v>
   <v>       0.33675000       0.33238000       0.12261000 </v>
   <v>       0.49952769       0.16150146       0.42000000 </v>
  </varray>
  <varray name="selective"  type="logical" >
   <v type="logical" >  F  F  F </v>
   <v type="logical" >  T  T  T </v>
   <v type="logical" >  T  T  T </v>
   <v type="logical" >  F  F  F </v>
   <v type="logical" >  T  T  T </v>
   <v type="logical" >  F  F  F </v>
   <v type="logical" >  T  T  T </v>
   <v type="logical" >  F  F  F </v>
   <v type="logical" >  T  T  T </v>
   <v type="logical" >  T  T  T </v>
   <v type="logical" >  T  T  T </v>
   <v type="logical" >  F  F  F </v>
   <v type="logical" >  T  T  T </v>
   <v type="logical" >  F  F  F </v>
   <v type="logical" >  T  T  T </v>
   <v type="logical" >  F  F  F </v>
   <v type="logical" >  F  F  F </v>
   <v type="logical" >  T  T  T </v>
   <v type="logical" >  F  F  F </v>
   <v type="logical" >  F  F  F </v>
   <v type="logical" >  F  F  F </v>
   <v type="logical" >  T  T  T </v>
   <v type="logical" >  F  F  F </v>
   <v type="logical" >  F  F  F </v>
   <v type="logical" >  F  F  F </v>
   <v type="logical" >  F  F  F </v>
   <v type="logical" >  T  T  T </v>
   <v type="logical" >  F  F  F </v>
   <v type="logical" >  F  F  F </v>
   <v type="logical" >  F  F  F </v>
   <v type="logical" >  F  F  F </v>
   <v type="logical" >  T  T  T </v>
   <v type="logical" >  F  F  F </v>
   <v type="logical" >  F  F  F </v>
   <v type="logical" >  F  F  F </v>
   <v type="logical" >  F  F  F </v>
   <v type="logical" >  F  F  F </v>
   <v type="logical" >  F  F  F </v>
   <v type="logical" >  F  F  F </v>
   <v type="logical" >  F  F  F </v>
   <v type="logical" >  F  F  F </v>
   <v type="logical" >  F  F  F </v>
   <v type="logical" >  F  F  F </v>
   <v type="logical" >  F  F  F </v>
   <v type="logical" >  F  F  F </v>
   <v type="logical" >  F  F  F </v>
   <v type="logical" >  F  F  F </v>
   <v type="logical" >  F  F  F </v>
   <v type="logical" >  F  F  F </v>
   <v type="logical" >  F  F  F </v>
   <v type="logical" >  F  F  F </v>
   <v type="logical" >  T  T  T </v>
   <v type="logical" >  F  F  F </v>
   <v type="logical" >  F  F  F </v>
   <v type="logical" >  T  T  T </v>
   <v type="logical" >  F  F  F </v>
   <v type="logical" >  T  T  T </v>
   <v type="logical" >  F  F  F </v>
   <v type="logical" >  T  T  T </v>
   <v type="logical" >  F  F  F </v>
   <v type="logical" >  F  F  F </v>
   <v type="logical" >  F  F  F </v>
   <v type="logical" >  T  T  T </v>
  </varray>
  <nose>
   <v>      -3.00000000       0.00000000       0.00010000       0.00010000 </v>
  </nose>
 </structure>
 <calculation>
  <scstep>
   <time name="dav">  125.30   18.09</time>
   <time name="total">  147.88   23.96</time>
   <dipole>
    <v name="dipole">      0.00000000       0.00000000      -0.00007059 </v>
    <i name="Tr[quadrupol]">  -7147.59707102 </i>
    <i name="Echarged">      0.00000000 </i>
    <i name="Edipol_quadrupol">      0.00000000 </i>
    <i name="Eion">      0.00000000 </i>
   </dipole>
   <energy>
    <i name="alphaZ">   1814.29791331 </i>
    <i name="ewald"> 209962.11070051 </i>
    <i name="hartreedc">-261111.27084004 </i>
    <i name="XCdc">    996.69587624 </i>
    <i name="pawpsdc">  46365.14764523 </i>
    <i name="pawaedc"> -47395.88140329 </i>
    <i name="eentropy">     -0.00522236 </i>
    <i name="bandstr">   1743.08592463 </i>
    <i name="atom">  53259.27193834 </i>
    <i name="e_fr_energy">   5633.45253257 </i>
    <i name="e_wo_entrp">   5633.45775493 </i>
    <i name="e_0_energy">   5633.45427336 </i>
   </energy>
  </scstep>
  <scstep>
   <time name="dav">  117.80   16.97</time>
   <time name="total">  117.87   16.98</time>
   <dipole>
    <v name="dipole">      0.00000000       0.00000000      -0.00007059 </v>
    <i name="Tr[quadrupol]">  -7147.59707102 </i>
    <i name="Echarged">      0.00000000 </i>
    <i name="Edipol_quadrupol">      0.00000000 </i>
    <i name="Eion">      0.00000000 </i>
   </dipole>
   <energy>
    <i name="e_fr_energy">    -54.55199612 </i>
    <i name="e_wo_entrp">    -54.55621236 </i>
    <i name="e_0_energy">    -54.55340153 </i>
   </energy>
  </scstep>
  <scstep>
   <time name="dav">  121.83   17.44</time>
   <time name="total">  121.89   17.45</time>
   <dipole>
    <v name="dipole">      0.00000000       0.00000000      -0.00007059 </v>
    <i name="Tr[quadrupol]">  -7147.59707102 </i>
    <i name="Echarged">      0.00000000 </i>
    <i name="Edipol_quadrupol">      0.00000000 </i>
    <i name="Eion">      0.00000000 </i>
   </dipole>
   <energy>
    <i name="e_fr_energy">   -516.25982806 </i>
    <i name="e_wo_entrp">   -516.25291436 </i>
    <i name="e_0_energy">   -516.25752350 </i>
   </energy>
  </scstep>
  <scstep>
   <time name="dav">  185.19   26.71</time>
   <time name="total">  185.25   26.72</time>
   <dipole>
    <v name="dipole">      0.00000000       0.00000000      -0.00007059 </v>
    <i name="Tr[quadrupol]">  -7147.59707102 </i>
    <i name="Echarged">      0.00000000 </i>
    <i name="Edipol_quadrupol">      0.00000000 </i>
    <i name="Eion">      0.00000000 </i>
   </dipole>
   <energy>
    <i name="e_fr_energy">   -576.57308055 </i>
    <i name="e_wo_entrp">   -576.57982320 </i>
    <i name="e_0_energy">   -576.57532810 </i>
   </energy>
  </scstep>
  <scstep>
   <time name="dav">  174.74   25.14</time>
   <time name="total">  178.55   26.12</time>
   <dipole>
    <v name="dipole">      0.00000000       0.00000000      -0.00007059 </v>
    <i name="Tr[quadrupol]">  -7147.59707102 </i>
    <i name="Echarged">      0.00000000 </i>
    <i name="Edipol_quadrupol">      0.00000000 </i>
    <i name="Eion">      0.00000000 </i>
   </dipole>
   <energy>
    <i name="e_fr_energy">   -580.08920733 </i>
    <i name="e_wo_entrp">   -580.10112098 </i>
    <i name="e_0_energy">   -580.09317855 </i>
   </energy>
  </scstep>
  <scstep>
   <time name="dav">  192.32   27.57</time>
   <time name="total">  219.40   34.31</time>
   <dipole>
    <v name="dipole">      0.00000000       0.00000000       2.26896677 </v>
    <i name="Tr[quadrupol]">  -7168.36618475 </i>
    <i name="Echarged">      0.00000000 </i>
    <i name="Edipol_quadrupol">      0.00000000 </i>
    <i name="Eion">      0.00000000 </i>
   </dipole>
   <energy>
    <i name="e_fr_energy">   -767.02513343 </i>
    <i name="e_wo_entrp">   -767.01206475 </i>
    <i name="e_0_energy">   -767.02077721 </i>
   </energy>
  </scstep>
  <scstep>
   <time name="dav">  195.16   27.99</time>
   <time name="total">  221.11   34.73</time>
   <dipole>
    <v name="dipole">      0.00000000       0.00000000      -1.43997636 </v>
    <i name="Tr[quadrupol]">  -7161.40829732 </i>
    <i name="Echarged">      0.00000000 </i>
    <i name="Edipol_quadrupol">      0.00000000 </i>
    <i name="Eion">      0.00000000 </i>
   </dipole>
   <energy>
    <i name="e_fr_energy">   -680.67175524 </i>
    <i name="e_wo_entrp">   -680.67392822 </i>
    <i name="e_0_energy">   -680.67247957 </i>
   </energy>
  </scstep>
  <scstep>
   <time name="dav">  194.10   27.79</time>
   <time name="total">  220.75   34.47</time>
   <dipole>
    <v name="dipole">      0.00000000       0.00000000       0.57267438 </v>
    <i name="Tr[quadrupol]">  -7156.03216479 </i>
    <i name="Echarged">      0.00000000 </i>
    <i name="Edipol_quadrupol">      0.00000000 </i>
    <i name="Eion">      0.00000000 </i>
   </dipole>
   <energy>
    <i name="e_fr_energy">   -545.35366394 </i>
    <i name="e_wo_entrp">   -545.32492594 </i>
    <i name="e_0_energy">   -545.34408461 </i>
   </energy>
  </scstep>
  <scstep>
   <time name="dav">  179.89   25.78</time>
   <time name="total">  206.58   32.46</time>
   <dipole>
    <v name="dipole">      0.00000000       0.00000000       0.11998825 </v>
    <i name="Tr[quadrupol]">  -7154.92212976 </i>
    <i name="Echarged">      0.00000000 </i>
    <i name="Edipol_quadrupol">      0.00000000 </i>
    <i name="Eion">      0.00000000 </i>
   </dipole>
   <energy>
    <i name="e_fr_energy">   -529.81926325 </i>
    <i name="e_wo_entrp">   -529.82617975 </i>
    <i name="e_0_energy">   -529.82156875 </i>
   </energy>
  </scstep>
  <scstep>
   <time name="dav">  175.05   25.36</time>
   <time name="total">  201.73   32.21</time>
   <dipole>
    <v name="dipole">      0.00000000       0.00000000       0.28150816 </v>
    <i name="Tr[quadrupol]">  -7155.20600115 </i>
    <i name="Echarged">      0.00000000 </i>
    <i name="Edipol_quadrupol">      0.00000000 </i>
    <i name="Eion">      0.00000000 </i>
   </dipole>
   <energy>
    <i name="e_fr_energy">   -519.14356094 </i>
    <i name="e_wo_entrp">   -519.14875652 </i>
    <i name="e_0_energy">   -519.14529280 </i>
   </energy>
  </scstep>
  <scstep>
   <time name="dav">  162.56   23.29</time>
   <time name="total">  189.43   30.00</time>
   <dipole>
    <v name="dipole">      0.00000000       0.00000000      -0.07637576 </v>
    <i name="Tr[quadrupol]">  -7162.10764303 </i>
    <i name="Echarged">      0.00000000 </i>
    <i name="Edipol_quadrupol">      0.00000000 </i>
    <i name="Eion">      0.00000000 </i>
   </dipole>
   <energy>
    <i name="e_fr_energy">   -498.12739219 </i>
    <i name="e_wo_entrp">   -498.12676678 </i>
    <i name="e_0_energy">   -498.12718372 </i>
   </energy>
  </scstep>
  <scstep>
   <time name="dav">  165.42   23.85</time>
   <time name="total">  191.54   30.56</time>
   <dipole>
    <v name="dipole">      0.00000000       0.00000000       0.29303031 </v>
    <i name="Tr[quadrupol]">  -7168.39343273 </i>
    <i name="Echarged">      0.00000000 </i>
    <i name="Edipol_quadrupol">      0.00000000 </i>
    <i name="Eion">      0.00000000 </i>
   </dipole>
   <energy>
    <i name="e_fr_energy">   -492.40192175 </i>
    <i name="e_wo_entrp">   -492.43639443 </i>
    <i name="e_0_energy">   -492.41341264 </i>
   </energy>
  </scstep>
  <scstep>
   <time name="dav">  151.41   21.71</time>
   <time name="total">  178.51   28.44</time>
   <dipole>
    <v name="dipole">      0.00000000       0.00000000       0.15695450 </v>
    <i name="Tr[quadrupol]">  -7170.12306528 </i>
    <i name="Echarged">      0.00000000 </i>
    <i name="Edipol_quadrupol">      0.00000000 </i>
    <i name="Eion">      0.00000000 </i>
   </dipole>
   <energy>
    <i name="e_fr_energy">   -491.96033035 </i>
    <i name="e_wo_entrp">   -491.97999553 </i>
    <i name="e_0_energy">   -491.96688541 </i>
   </energy>
  </scstep>
  <scstep>
   <time name="dav">  156.99   22.48</time>
   <time name="total">  184.13   29.24</time>
   <dipole>
    <v name="dipole">      0.00000000       0.00000000       0.13719597 </v>
    <i name="Tr[quadrupol]">  -7169.85155599 </i>
    <i name="Echarged">      0.00000000 </i>
    <i name="Edipol_quadrupol">      0.00000000 </i>
    <i name="Eion">      0.00000000 </i>
   </dipole>
   <energy>
    <i name="e_fr_energy">   -491.94554234 </i>
    <i name="e_wo_entrp">   -491.97309235 </i>
    <i name="e_0_energy">   -491.95472568 </i>
   </energy>
  </scstep>
  <scstep>
   <time name="dav">  181.72   26.16</time>
   <time name="total">  209.21   32.98</time>
   <dipole>
    <v name="dipole">      0.00000000       0.00000000       0.08448552 </v>
    <i name="Tr[quadrupol]">  -7171.33555231 </i>
    <i name="Echarged">      0.00000000 </i>
    <i name="Edipol_quadrupol">      0.00000000 </i>
    <i name="Eion">      0.00000000 </i>
   </dipole>
   <energy>
    <i name="e_fr_energy">   -493.02979714 </i>
    <i name="e_wo_entrp">   -493.05740562 </i>
    <i name="e_0_energy">   -493.03899997 </i>
   </energy>
  </scstep>
  <scstep>
   <time name="dav">  182.34   26.28</time>
   <time name="total">  209.44   33.03</time>
   <dipole>
    <v name="dipole">      0.00000000       0.00000000       0.20642764 </v>
    <i name="Tr[quadrupol]">  -7172.93947983 </i>
    <i name="Echarged">      0.00000000 </i>
    <i name="Edipol_quadrupol">      0.00000000 </i>
    <i name="Eion">      0.00000000 </i>
   </dipole>
   <energy>
    <i name="e_fr_energy">   -494.66124548 </i>
    <i name="e_wo_entrp">   -494.68404976 </i>
    <i name="e_0_energy">   -494.66884690 </i>
   </energy>
  </scstep>
  <scstep>
   <time name="dav">  174.52   25.03</time>
   <time name="total">  201.55   31.79</time>
   <dipole>
    <v name="dipole">      0.00000000       0.00000000       0.17080470 </v>
    <i name="Tr[quadrupol]">  -7177.48741465 </i>
    <i name="Echarged">      0.00000000 </i>
    <i name="Edipol_quadrupol">      0.00000000 </i>
    <i name="Eion">      0.00000000 </i>
   </dipole>
   <energy>
    <i name="e_fr_energy">   -498.13645421 </i>
    <i name="e_wo_entrp">   -498.11846009 </i>
    <i name="e_0_energy">   -498.13045617 </i>
   </energy>
  </scstep>
  <scstep>
   <time name="dav">  174.57   25.06</time>
   <time name="total">  201.28   31.87</time>
   <dipole>
    <v name="dipole">      0.00000000       0.00000000       0.13786699 </v>
    <i name="Tr[quadrupol]">  -7178.78476306 </i>
    <i name="Echarged">      0.00000000 </i>
    <i name="Edipol_quadrupol">      0.00000000 </i>
    <i name="Eion">      0.00000000 </i>
   </dipole>
   <energy>
    <i name="e_fr_energy">   -499.31671592 </i>
    <i name="e_wo_entrp">   -499.31499773 </i>
    <i name="e_0_energy">   -499.31614319 </i>
   </energy>
  </scstep>
  <scstep>
   <time name="dav">  179.15   25.71</time>
   <time name="total">  206.37   32.50</time>
   <dipole>
    <v name="dipole">      0.00000000       0.00000000       0.15581271 </v>
    <i name="Tr[quadrupol]">  -7179.08271602 </i>
    <i name="Echarged">      0.00000000 </i>
    <i name="Edipol_quadrupol">      0.00000000 </i>
    <i name="Eion">      0.00000000 </i>
   </dipole>
   <energy>
    <i name="e_fr_energy">   -499.81252434 </i>
    <i name="e_wo_entrp">   -499.80874840 </i>
    <i name="e_0_energy">   -499.81126569 </i>
   </energy>
  </scstep>
  <scstep>
   <time name="dav">  183.92   26.42</time>
   <time name="total">  210.97   33.18</time>
   <dipole>
    <v name="dipole">      0.00000000       0.00000000       0.12497774 </v>
    <i name="Tr[quadrupol]">  -7178.78559071 </i>
    <i name="Echarged">      0.00000000 </i>
    <i name="Edipol_quadrupol">      0.00000000 </i>
    <i name="Eion">      0.00000000 </i>
   </dipole>
   <energy>
    <i name="e_fr_energy">   -500.34454095 </i>
    <i name="e_wo_entrp">   -500.36342010 </i>
    <i name="e_0_energy">   -500.35083400 </i>
   </energy>
  </scstep>
  <scstep>
   <time name="dav">  180.29   25.91</time>
   <time name="total">  206.88   32.70</time>
   <dipole>
    <v name="dipole">      0.00000000       0.00000000       0.19043356 </v>
    <i name="Tr[quadrupol]">  -7177.84072979 </i>
    <i name="Echarged">      0.00000000 </i>
    <i name="Edipol_quadrupol">      0.00000000 </i>
    <i name="Eion">      0.00000000 </i>
   </dipole>
   <energy>
    <i name="e_fr_energy">   -500.49074972 </i>
    <i name="e_wo_entrp">   -500.51764532 </i>
    <i name="e_0_energy">   -500.49971492 </i>
   </energy>
  </scstep>
  <scstep>
   <time name="dav">  167.88   24.31</time>
   <time name="total">  194.46   31.09</time>
   <dipole>
    <v name="dipole">      0.00000000       0.00000000       0.17529560 </v>
    <i name="Tr[quadrupol]">  -7177.42785737 </i>
    <i name="Echarged">      0.00000000 </i>
    <i name="Edipol_quadrupol">      0.00000000 </i>
    <i name="Eion">      0.00000000 </i>
   </dipole>
   <energy>
    <i name="e_fr_energy">   -500.36519992 </i>
    <i name="e_wo_entrp">   -500.39804903 </i>
    <i name="e_0_energy">   -500.37614962 </i>
   </energy>
  </scstep>
  <scstep>
   <time name="dav">  173.91   24.96</time>
   <time name="total">  200.74   31.77</time>
   <dipole>
    <v name="dipole">      0.00000000       0.00000000       0.18006925 </v>
    <i name="Tr[quadrupol]">  -7177.42095707 </i>
    <i name="Echarged">      0.00000000 </i>
    <i name="Edipol_quadrupol">      0.00000000 </i>
    <i name="Eion">      0.00000000 </i>
   </dipole>
   <energy>
    <i name="e_fr_energy">   -500.39065829 </i>
    <i name="e_wo_entrp">   -500.42545885 </i>
    <i name="e_0_energy">   -500.40225848 </i>
   </energy>
  </scstep>
  <scstep>
   <time name="dav">  183.26   26.40</time>
   <time name="total">  211.16   33.24</time>
   <dipole>
    <v name="dipole">      0.00000000       0.00000000       0.17568448 </v>
    <i name="Tr[quadrupol]">  -7177.50088628 </i>
    <i name="Echarged">      0.00000000 </i>
    <i name="Edipol_quadrupol">      0.00000000 </i>
    <i name="Eion">      0.00000000 </i>
   </dipole>
   <energy>
    <i name="e_fr_energy">   -500.53403665 </i>
    <i name="e_wo_entrp">   -500.57872816 </i>
    <i name="e_0_energy">   -500.54893382 </i>
   </energy>
  </scstep>
  <scstep>
   <time name="dav">  181.01   25.97</time>
   <time name="total">  207.66   32.77</time>
   <dipole>
    <v name="dipole">      0.00000000       0.00000000       0.15589811 </v>
    <i name="Tr[quadrupol]">  -7176.96271778 </i>
    <i name="Echarged">      0.00000000 </i>
    <i name="Edipol_quadrupol">      0.00000000 </i>
    <i name="Eion">      0.00000000 </i>
   </dipole>
   <energy>
    <i name="e_fr_energy">   -500.80683800 </i>
    <i name="e_wo_entrp">   -500.84620965 </i>
    <i name="e_0_energy">   -500.81996188 </i>
   </energy>
  </scstep>
  <scstep>
   <time name="dav">  180.46   25.91</time>
   <time name="total">  208.03   32.71</time>
   <dipole>
    <v name="dipole">      0.00000000       0.00000000       0.14625495 </v>
    <i name="Tr[quadrupol]">  -7177.01396729 </i>
    <i name="Echarged">      0.00000000 </i>
    <i name="Edipol_quadrupol">      0.00000000 </i>
    <i name="Eion">      0.00000000 </i>
   </dipole>
   <energy>
    <i name="e_fr_energy">   -501.13067455 </i>
    <i name="e_wo_entrp">   -501.15812466 </i>
    <i name="e_0_energy">   -501.13982459 </i>
   </energy>
  </scstep>
  <scstep>
   <time name="dav">  183.57   26.40</time>
   <time name="total">  210.88   33.25</time>
   <dipole>
    <v name="dipole">      0.00000000       0.00000000       0.12955780 </v>
    <i name="Tr[quadrupol]">  -7177.49993269 </i>
    <i name="Echarged">      0.00000000 </i>
    <i name="Edipol_quadrupol">      0.00000000 </i>
    <i name="Eion">      0.00000000 </i>
   </dipole>
   <energy>
    <i name="e_fr_energy">   -501.25373705 </i>
    <i name="e_wo_entrp">   -501.27937775 </i>
    <i name="e_0_energy">   -501.26228395 </i>
   </energy>
  </scstep>
  <scstep>
   <time name="dav">  180.32   26.03</time>
   <time name="total">  207.80   32.88</time>
   <dipole>
    <v name="dipole">      0.00000000       0.00000000       0.11954063 </v>
    <i name="Tr[quadrupol]">  -7177.93684230 </i>
    <i name="Echarged">      0.00000000 </i>
    <i name="Edipol_quadrupol">      0.00000000 </i>
    <i name="Eion">      0.00000000 </i>
   </dipole>
   <energy>
    <i name="e_fr_energy">   -501.40485569 </i>
    <i name="e_wo_entrp">   -501.43292909 </i>
    <i name="e_0_energy">   -501.41421349 </i>
   </energy>
  </scstep>
  <scstep>
   <time name="dav">  181.28   25.94</time>
   <time name="total">  208.93   32.78</time>
   <dipole>
    <v name="dipole">      0.00000000       0.00000000       0.12862744 </v>
    <i name="Tr[quadrupol]">  -7177.95982158 </i>
    <i name="Echarged">      0.00000000 </i>
    <i name="Edipol_quadrupol">      0.00000000 </i>
    <i name="Eion">      0.00000000 </i>
   </dipole>
   <energy>
    <i name="e_fr_energy">   -501.49528961 </i>
    <i name="e_wo_entrp">   -501.52267738 </i>
    <i name="e_0_energy">   -501.50441887 </i>
   </energy>
  </scstep>
  <scstep>
   <time name="dav">  173.98   25.02</time>
   <time name="total">  201.87   31.90</time>
   <dipole>
    <v name="dipole">      0.00000000       0.00000000       0.12865620 </v>
    <i name="Tr[quadrupol]">  -7177.71797776 </i>
    <i name="Echarged">      0.00000000 </i>
    <i name="Edipol_quadrupol">      0.00000000 </i>
    <i name="Eion">      0.00000000 </i>
   </dipole>
   <energy>
    <i name="e_fr_energy">   -501.52354933 </i>
    <i name="e_wo_entrp">   -501.55081350 </i>
    <i name="e_0_energy">   -501.53263739 </i>
   </energy>
  </scstep>
  <scstep>
   <time name="dav">  183.40   26.30</time>
   <time name="total">  211.95   33.27</time>
   <dipole>
    <v name="dipole">      0.00000000       0.00000000       0.13672158 </v>
    <i name="Tr[quadrupol]">  -7177.48614133 </i>
    <i name="Echarged">      0.00000000 </i>
    <i name="Edipol_quadrupol">      0.00000000 </i>
    <i name="Eion">      0.00000000 </i>
   </dipole>
   <energy>
    <i name="e_fr_energy">   -501.53832413 </i>
    <i name="e_wo_entrp">   -501.56593492 </i>
    <i name="e_0_energy">   -501.54752773 </i>
   </energy>
  </scstep>
  <scstep>
   <time name="dav">  180.97   26.03</time>
   <time name="total">  209.45   32.98</time>
   <dipole>
    <v name="dipole">      0.00000000       0.00000000       0.12118594 </v>
    <i name="Tr[quadrupol]">  -7177.41777759 </i>
    <i name="Echarged">      0.00000000 </i>
    <i name="Edipol_quadrupol">      0.00000000 </i>
    <i name="Eion">      0.00000000 </i>
   </dipole>
   <energy>
    <i name="e_fr_energy">   -501.58247434 </i>
    <i name="e_wo_entrp">   -501.61165981 </i>
    <i name="e_0_energy">   -501.59220283 </i>
   </energy>
  </scstep>
  <scstep>
   <time name="dav">  178.68   25.82</time>
   <time name="total">  205.99   32.75</time>
   <dipole>
    <v name="dipole">      0.00000000       0.00000000       0.11982844 </v>
    <i name="Tr[quadrupol]">  -7177.53119595 </i>
    <i name="Echarged">      0.00000000 </i>
    <i name="Edipol_quadrupol">      0.00000000 </i>
    <i name="Eion">      0.00000000 </i>
   </dipole>
   <energy>
    <i name="e_fr_energy">   -501.59326026 </i>
    <i name="e_wo_entrp">   -501.62228630 </i>
    <i name="e_0_energy">   -501.60293561 </i>
   </energy>
  </scstep>
  <scstep>
   <time name="dav">  172.51   24.82</time>
   <time name="total">  200.12   31.73</time>
   <dipole>
    <v name="dipole">      0.00000000       0.00000000       0.12004113 </v>
    <i name="Tr[quadrupol]">  -7177.65318315 </i>
    <i name="Echarged">      0.00000000 </i>
    <i name="Edipol_quadrupol">      0.00000000 </i>
    <i name="Eion">      0.00000000 </i>
   </dipole>
   <energy>
    <i name="e_fr_energy">   -501.60077281 </i>
    <i name="e_wo_entrp">   -501.62981421 </i>
    <i name="e_0_energy">   -501.61045328 </i>
   </energy>
  </scstep>
  <scstep>
   <time name="dav">  186.97   26.84</time>
   <time name="total">  214.69   33.82</time>
   <dipole>
    <v name="dipole">      0.00000000       0.00000000       0.12383829 </v>
    <i name="Tr[quadrupol]">  -7177.58602613 </i>
    <i name="Echarged">      0.00000000 </i>
    <i name="Edipol_quadrupol">      0.00000000 </i>
    <i name="Eion">      0.00000000 </i>
   </dipole>
   <energy>
    <i name="e_fr_energy">   -501.61422892 </i>
    <i name="e_wo_entrp">   -501.64346772 </i>
    <i name="e_0_energy">   -501.62397518 </i>
   </energy>
  </scstep>
  <scstep>
   <time name="dav">  180.59   25.90</time>
   <time name="total">  208.82   32.92</time>
   <dipole>
    <v name="dipole">      0.00000000       0.00000000       0.12604554 </v>
    <i name="Tr[quadrupol]">  -7177.51815344 </i>
    <i name="Echarged">      0.00000000 </i>
    <i name="Edipol_quadrupol">      0.00000000 </i>
    <i name="Eion">      0.00000000 </i>
   </dipole>
   <energy>
    <i name="e_fr_energy">   -501.62310513 </i>
    <i name="e_wo_entrp">   -501.65258133 </i>
    <i name="e_0_energy">   -501.63293053 </i>
   </energy>
  </scstep>
  <scstep>
   <time name="dav">  172.50   24.75</time>
   <time name="total">  200.47   31.70</time>
   <dipole>
    <v name="dipole">      0.00000000       0.00000000       0.12790733 </v>
    <i name="Tr[quadrupol]">  -7177.55043879 </i>
    <i name="Echarged">      0.00000000 </i>
    <i name="Edipol_quadrupol">      0.00000000 </i>
    <i name="Eion">      0.00000000 </i>
   </dipole>
   <energy>
    <i name="e_fr_energy">   -501.62364756 </i>
    <i name="e_wo_entrp">   -501.65301676 </i>
    <i name="e_0_energy">   -501.63343729 </i>
   </energy>
  </scstep>
  <scstep>
   <time name="dav">  184.33   26.46</time>
   <time name="total">  212.67   33.53</time>
   <dipole>
    <v name="dipole">      0.00000000       0.00000000       0.12702604 </v>
    <i name="Tr[quadrupol]">  -7177.55597661 </i>
    <i name="Echarged">      0.00000000 </i>
    <i name="Edipol_quadrupol">      0.00000000 </i>
    <i name="Eion">      0.00000000 </i>
   </dipole>
   <energy>
    <i name="e_fr_energy">   -501.62282490 </i>
    <i name="e_wo_entrp">   -501.65217323 </i>
    <i name="e_0_energy">   -501.63260768 </i>
   </energy>
  </scstep>
  <scstep>
   <time name="dav">  182.71   26.22</time>
   <time name="total">  210.73   33.27</time>
   <dipole>
    <v name="dipole">      0.00000000       0.00000000       0.12619971 </v>
    <i name="Tr[quadrupol]">  -7177.55074391 </i>
    <i name="Echarged">      0.00000000 </i>
    <i name="Edipol_quadrupol">      0.00000000 </i>
    <i name="Eion">      0.00000000 </i>
   </dipole>
   <energy>
    <i name="e_fr_energy">   -501.62318204 </i>
    <i name="e_wo_entrp">   -501.65234109 </i>
    <i name="e_0_energy">   -501.63290172 </i>
   </energy>
  </scstep>
  <scstep>
   <time name="dav">  161.42   23.22</time>
   <time name="total">  188.65   30.20</time>
   <dipole>
    <v name="dipole">      0.00000000       0.00000000       0.12552280 </v>
    <i name="Tr[quadrupol]">  -7177.49784691 </i>
    <i name="Echarged">      0.00000000 </i>
    <i name="Edipol_quadrupol">      0.00000000 </i>
    <i name="Eion">      0.00000000 </i>
   </dipole>
   <energy>
    <i name="e_fr_energy">   -501.62327981 </i>
    <i name="e_wo_entrp">   -501.65236324 </i>
    <i name="e_0_energy">   -501.63297429 </i>
   </energy>
  </scstep>
  <scstep>
   <time name="dav">  176.74   25.62</time>
   <time name="total">  204.91   32.62</time>
   <dipole>
    <v name="dipole">      0.00000000       0.00000000       0.12451578 </v>
    <i name="Tr[quadrupol]">  -7177.46931281 </i>
    <i name="Echarged">      0.00000000 </i>
    <i name="Edipol_quadrupol">      0.00000000 </i>
    <i name="Eion">      0.00000000 </i>
   </dipole>
   <energy>
    <i name="e_fr_energy">   -501.62378668 </i>
    <i name="e_wo_entrp">   -501.65259910 </i>
    <i name="e_0_energy">   -501.63339082 </i>
   </energy>
  </scstep>
  <scstep>
   <time name="dav">  179.68   25.83</time>
   <time name="total">  207.38   32.87</time>
   <dipole>
    <v name="dipole">      0.00000000       0.00000000       0.12397030 </v>
    <i name="Tr[quadrupol]">  -7177.44840462 </i>
    <i name="Echarged">      0.00000000 </i>
    <i name="Edipol_quadrupol">      0.00000000 </i>
    <i name="Eion">      0.00000000 </i>
   </dipole>
   <energy>
    <i name="e_fr_energy">   -501.62408150 </i>
    <i name="e_wo_entrp">   -501.65300123 </i>
    <i name="e_0_energy">   -501.63372141 </i>
   </energy>
  </scstep>
  <scstep>
   <time name="dav">  179.14   25.81</time>
   <time name="total">  208.03   32.93</time>
   <dipole>
    <v name="dipole">      0.00000000       0.00000000       0.12340411 </v>
    <i name="Tr[quadrupol]">  -7177.45805651 </i>
    <i name="Echarged">      0.00000000 </i>
    <i name="Edipol_quadrupol">      0.00000000 </i>
    <i name="Eion">      0.00000000 </i>
   </dipole>
   <energy>
    <i name="e_fr_energy">   -501.62406678 </i>
    <i name="e_wo_entrp">   -501.65307582 </i>
    <i name="e_0_energy">   -501.63373646 </i>
   </energy>
  </scstep>
  <scstep>
   <time name="dav">  172.35   24.88</time>
   <time name="total">  200.25   32.03</time>
   <dipole>
    <v name="dipole">      0.00000000       0.00000000       0.12390471 </v>
    <i name="Tr[quadrupol]">  -7177.47753953 </i>
    <i name="Echarged">      0.00000000 </i>
    <i name="Edipol_quadrupol">      0.00000000 </i>
    <i name="Eion">      0.00000000 </i>
   </dipole>
   <energy>
    <i name="e_fr_energy">   -501.62405718 </i>
    <i name="e_wo_entrp">   -501.65319345 </i>
    <i name="e_0_energy">   -501.63376927 </i>
   </energy>
  </scstep>
  <scstep>
   <time name="dav">  167.82   24.29</time>
   <time name="total">  195.40   31.37</time>
   <dipole>
    <v name="dipole">      0.00000000       0.00000000       0.12439672 </v>
    <i name="Tr[quadrupol]">  -7177.48955552 </i>
    <i name="Echarged">      0.00000000 </i>
    <i name="Edipol_quadrupol">      0.00000000 </i>
    <i name="Eion">      0.00000000 </i>
   </dipole>
   <energy>
    <i name="e_fr_energy">   -501.62410745 </i>
    <i name="e_wo_entrp">   -501.65328255 </i>
    <i name="e_0_energy">   -501.63383248 </i>
   </energy>
  </scstep>
  <scstep>
   <time name="dav">  176.55   25.38</time>
   <time name="total">  204.76   32.59</time>
   <dipole>
    <v name="dipole">      0.00000000       0.00000000       0.12400028 </v>
    <i name="Tr[quadrupol]">  -7177.46087747 </i>
    <i name="Echarged">      0.00000000 </i>
    <i name="Edipol_quadrupol">      0.00000000 </i>
    <i name="Eion">      0.00000000 </i>
   </dipole>
   <energy>
    <i name="e_fr_energy">   -501.62413688 </i>
    <i name="e_wo_entrp">   -501.65329024 </i>
    <i name="e_0_energy">   -501.63385466 </i>
   </energy>
  </scstep>
  <scstep>
   <time name="dav">  166.83   23.91</time>
   <time name="total">  195.13   31.01</time>
   <dipole>
    <v name="dipole">      0.00000000       0.00000000       0.12388005 </v>
    <i name="Tr[quadrupol]">  -7177.45769212 </i>
    <i name="Echarged">      0.00000000 </i>
    <i name="Edipol_quadrupol">      0.00000000 </i>
    <i name="Eion">      0.00000000 </i>
   </dipole>
   <energy>
    <i name="e_fr_energy">   -501.62416865 </i>
    <i name="e_wo_entrp">   -501.65334051 </i>
    <i name="e_0_energy">   -501.63389260 </i>
   </energy>
  </scstep>
  <scstep>
   <time name="dav">   92.00   16.24</time>
   <time name="total">  114.34   22.05</time>
   <dipole>
    <v name="dipole">      0.00000000       0.00000000       0.12372660 </v>
    <i name="Tr[quadrupol]">  -7177.45423414 </i>
    <i name="Echarged">      0.00000000 </i>
    <i name="Edipol_quadrupol">      0.00000000 </i>
    <i name="Eion">      0.00000000 </i>
   </dipole>
   <energy>
    <i name="alphaZ">   1813.86161245 </i>
    <i name="ewald"> 209962.11070051 </i>
    <i name="hartreedc">-261012.43876732 </i>
    <i name="XCdc">   1000.33018039 </i>
    <i name="pawpsdc">  55746.62957456 </i>
    <i name="pawaedc"> -56873.05555005 </i>
    <i name="eentropy">      0.02921436 </i>
    <i name="bandstr">  -4398.36306636 </i>
    <i name="atom">  53259.27193834 </i>
    <i name="e_fr_energy">   -501.62416310 </i>
    <i name="e_wo_entrp">   -501.65337746 </i>
    <i name="e_0_energy">   -501.63390122 </i>
   </energy>
  </scstep>
  <structure>
   <crystal>
    <varray name="basis" >
     <v>       8.53269958       0.00000000       0.00000000 </v>
     <v>      -0.00051933       8.49699972       0.00000000 </v>
     <v>       0.00000000       0.00000000      23.59499931 </v>
    </varray>
    <i name="volume">   1710.69280467 </i>
    <varray name="rec_basis" >
     <v>       0.11719620       0.00000716       0.00000000 </v>
     <v>       0.00000000       0.11768860       0.00000000 </v>
     <v>       0.00000000       0.00000000       0.04238186 </v>
    </varray>
   </crystal>
   <varray name="positions" >
    <v>       0.00086000       0.99993000       0.24271000 </v>
    <v>       0.16518108       0.16628776       0.30293635 </v>
    <v>       0.49952769       0.16150146       0.30051064 </v>
    <v>       0.66822000       0.00107000       0.24272000 </v>
    <v>       0.83540605       0.16719181       0.30201547 </v>
    <v>       0.00044000       0.33497000       0.24240000 </v>
    <v>       0.17003923       0.50377992       0.30438006 </v>
    <v>       0.33469000       0.33305000       0.24267000 </v>
    <v>       0.49794545       0.50692546       0.30261104 </v>
    <v>       0.83350303       0.49977551       0.30155869 </v>
    <v>       0.16980569       0.83135723       0.30448561 </v>
    <v>       0.33342000       0.66555000       0.24261000 </v>
    <v>       0.83563525       0.83323349       0.30207079 </v>
    <v>       0.00064000       0.00119000       0.00199000 </v>
    <v>       0.00169283       0.00134563       0.36016866 </v>
    <v>       0.16843000       0.16962000       0.06269000 </v>
    <v>       0.33460000       0.00297000       0.00254000 </v>
    <v>       0.33298710       0.01077992       0.36233171 </v>
    <v>       0.50463000       0.16850000       0.06120000 </v>
    <v>       0.83272000       0.16670000       0.06193000 </v>
    <v>       0.00004000       0.33467000       0.00213000 </v>
    <v>       0.00330980       0.33456125       0.35986633 </v>
    <v>       0.16757000       0.49895000       0.06268000 </v>
    <v>       0.50099000       0.49896000       0.06206000 </v>
    <v>       0.83393000       0.50234000       0.06235000 </v>
    <v>       0.00121000       0.66785000       0.00188000 </v>
    <v>       0.99397154       0.66457574       0.36058292 </v>
    <v>       0.16792000       0.83462000       0.06228000 </v>
    <v>       0.33437000       0.66664000       0.00225000 </v>
    <v>       0.50152000       0.83563000       0.06217000 </v>
    <v>       0.66753000       0.66705000       0.00175000 </v>
    <v>       0.66771955       0.66560127       0.35896199 </v>
    <v>       0.83293000       0.83584000       0.06235000 </v>
    <v>       0.00121000       0.00098000       0.12225000 </v>
    <v>       0.16700000       0.16811000       0.18239000 </v>
    <v>       0.33470000       0.00227000       0.12192000 </v>
    <v>       0.50174000       0.16716000       0.18263000 </v>
    <v>       0.83421000       0.16639000       0.18283000 </v>
    <v>       0.16964000       0.49868000       0.18209000 </v>
    <v>       0.50219000       0.50081000       0.18317000 </v>
    <v>       0.66741000       0.33395000       0.12233000 </v>
    <v>       0.83134000       0.50253000       0.18283000 </v>
    <v>       0.00132000       0.66795000       0.12253000 </v>
    <v>       0.16898000       0.83509000       0.18243000 </v>
    <v>       0.33446000       0.66703000       0.12223000 </v>
    <v>       0.49971000       0.83538000       0.18278000 </v>
    <v>       0.66698000       0.66840000       0.12259000 </v>
    <v>       0.83488000       0.83403000       0.18294000 </v>
    <v>       0.33558000       0.99863000       0.24353000 </v>
    <v>       0.66801000       0.33262000       0.24229000 </v>
    <v>       0.00448000       0.66739000       0.24217000 </v>
    <v>       0.49700961       0.83449527       0.30353281 </v>
    <v>       0.66521000       0.67351000       0.24327000 </v>
    <v>       0.66620000       0.99680000       0.00000000 </v>
    <v>       0.65741120       0.99737461       0.36440436 </v>
    <v>       0.33213000       0.33386000       0.00135000 </v>
    <v>       0.34161521       0.32741666       0.36244025 </v>
    <v>       0.67040000       0.33673000       0.00321000 </v>
    <v>       0.65913892       0.33109159       0.36693066 </v>
    <v>       0.66728000       0.99998000       0.12246000 </v>
    <v>       0.99806000       0.33495000       0.12235000 </v>
    <v>       0.33675000       0.33238000       0.12261000 </v>
    <v>       0.49952769       0.16150146       0.42000000 </v>
   </varray>
  </structure>
  <varray name="forces" >
   <v>       0.01632207      -0.03914775      -0.16603929 </v>
   <v>      -0.04356860       0.09302345      -0.10774132 </v>
   <v>       0.11245894      -0.04935484      -0.27454742 </v>
   <v>       0.03355335      -0.30496009       0.00289461 </v>
   <v>      -0.02132919       0.02014212      -0.02020748 </v>
   <v>       0.07237585       0.03932098      -0.14096959 </v>
   <v>       0.04171861      -0.06973517      -0.05312916 </v>
   <v>      -0.04760339       0.10767611      -0.03672602 </v>
   <v>      -0.06102059      -0.07545257       0.03481209 </v>
   <v>      -0.04880796      -0.00439648       0.02752104 </v>
   <v>       0.00169670       0.00933713      -0.05146959 </v>
   <v>       0.12748128       0.17600408       0.02532098 </v>
   <v>       0.00045379      -0.00046108       0.05220456 </v>
   <v>       0.01573260      -0.02987053       0.29264872 </v>
   <v>      -0.05944525      -0.02746875       0.06326033 </v>
   <v>      -0.31297389      -0.28604560      -0.03772213 </v>
   <v>      -0.02495878      -0.01632157       0.39761539 </v>
   <v>      -2.00166375      -1.81654225      -1.80568010 </v>
   <v>      -0.20671427      -0.15446478       0.53930920 </v>
   <v>       0.45570737       0.15161314       0.15152219 </v>
   <v>      -0.05678762       0.01528555       0.43427495 </v>
   <v>       0.00311596       0.03167680       0.01249411 </v>
   <v>      -0.25841949       0.29984612      -0.04855952 </v>
   <v>       0.11786032       0.45582785       0.16077315 </v>
   <v>       0.17171027       0.12590190      -0.09649676 </v>
   <v>       0.05861488       0.01971953       0.17269998 </v>
   <v>      -0.02741467       0.00155559      -0.01187899 </v>
   <v>      -0.03761568      -0.02531501      -0.45832384 </v>
   <v>      -0.09960417       0.02346959       0.29801396 </v>
   <v>      -0.28553556      -0.38550009      -0.02068380 </v>
   <v>      -0.02010501      -0.05173460       0.43331859 </v>
   <v>       0.04628994       0.01994890      -0.00642389 </v>
   <v>       0.37072495      -0.36197772      -0.03125880 </v>
   <v>       0.00578789       0.14386508       0.03331761 </v>
   <v>       0.03103647      -0.02133360       0.05520762 </v>
   <v>       0.08125860       0.07485266       0.08450877 </v>
   <v>      -0.13292100      -0.04367980       0.06950508 </v>
   <v>       0.08863383       0.06517348      -0.06345495 </v>
   <v>      -0.04416712       0.01250493       0.08996387 </v>
   <v>       0.02289800       0.08778704       0.04840434 </v>
   <v>       0.05742913      -0.01224841       0.03673802 </v>
   <v>       0.05797699       0.03005733       0.10200252 </v>
   <v>      -0.08411035      -0.05357537      -0.05326469 </v>
   <v>      -0.00463481      -0.04148688       0.05313911 </v>
   <v>       0.14720993       0.01298835       0.03251776 </v>
   <v>      -0.04729467      -0.05330649       0.07115855 </v>
   <v>      -0.06803241      -0.06072116       0.08830718 </v>
   <v>       0.02223353      -0.07177319       0.12456699 </v>
   <v>      -0.08579641      -0.05802404      -0.16847791 </v>
   <v>      -0.07279371       0.04483008       0.24782302 </v>
   <v>      -0.07328428       0.03742686      -0.07720782 </v>
   <v>      -0.06565064       0.04339889       0.00061537 </v>
   <v>      -0.01219962       0.00603830      -0.23997536 </v>
   <v>       0.06771891       0.42674379      -0.78086137 </v>
   <v>       2.48382384      -2.41445884      -2.22974112 </v>
   <v>       0.31915607       0.02756766      -0.62860541 </v>
   <v>      -2.35612784       2.45911296      -2.09890978 </v>
   <v>      -0.34272652      -0.36294131      -0.21906254 </v>
   <v>       2.45504543       2.48705852      -2.23489523 </v>
   <v>      -0.08374772       0.19152567      -0.27903476 </v>
   <v>      -0.07188873      -0.08486982       0.05507851 </v>
   <v>       0.13766403      -0.07433019      -0.41954545 </v>
   <v>      -0.46474581      -0.68978247       8.56935594 </v>
  </varray>
  <varray name="stress" >
   <v>      -8.93306126      -0.88178775      -0.06339037 </v>
   <v>      -0.88178853      -7.32732517      -0.57526991 </v>
   <v>      -0.06339046      -0.57527104       6.73134172 </v>
  </varray>
  <energy>
   <i name="e_fr_energy">   -501.62416310 </i>
   <i name="e_wo_entrp">   -501.65337746 </i>
   <i name="e_0_energy">   -501.63390122 </i>
  </energy>
  <time name="totalsc"> 9576.17 1526.86</time>
 </calculation>
 <calculation>
  <scstep>
   <time name="dav">  139.33   19.97</time>
   <time name="total">  166.11   26.71</time>
   <dipole>
    <v name="dipole">      0.00000000       0.00000000       0.12338543 </v>
    <i name="Tr[quadrupol]">  -7161.75380434 </i>
    <i name="Echarged">      0.00000000 </i>
    <i name="Edipol_quadrupol">      0.00000000 </i>
    <i name="Eion">      0.00000000 </i>
   </dipole>
   <energy>
    <i name="alphaZ">   1815.40389616 </i>
    <i name="ewald"> 209157.11350883 </i>
    <i name="hartreedc">-260229.78938480 </i>
    <i name="XCdc">    999.82356709 </i>
    <i name="pawpsdc">  55747.82352594 </i>
    <i name="pawaedc"> -56874.28505883 </i>
    <i name="eentropy">      0.01126920 </i>
    <i name="bandstr">  -4328.61992636 </i>
    <i name="atom">  53259.27193834 </i>
    <i name="e_fr_energy">   -453.24666441 </i>
    <i name="e_wo_entrp">   -453.25793361 </i>
    <i name="e_0_energy">   -453.25042081 </i>
   </energy>
  </scstep>
  <scstep>
   <time name="dav">  178.49   25.62</time>
   <time name="total">  204.74   32.36</time>
   <dipole>
    <v name="dipole">      0.00000000       0.00000000      -1.17597712 </v>
    <i name="Tr[quadrupol]">  -7162.66725275 </i>
    <i name="Echarged">      0.00000000 </i>
    <i name="Edipol_quadrupol">      0.00000000 </i>
    <i name="Eion">      0.00000000 </i>
   </dipole>
   <energy>
    <i name="e_fr_energy">   -544.31521353 </i>
    <i name="e_wo_entrp">   -544.30437006 </i>
    <i name="e_0_energy">   -544.31159904 </i>
   </energy>
  </scstep>
  <scstep>
   <time name="dav">  186.94   26.80</time>
   <time name="total">  213.81   33.56</time>
   <dipole>
    <v name="dipole">      0.00000000       0.00000000       0.38644365 </v>
    <i name="Tr[quadrupol]">  -7163.86516592 </i>
    <i name="Echarged">      0.00000000 </i>
    <i name="Edipol_quadrupol">      0.00000000 </i>
    <i name="Eion">      0.00000000 </i>
   </dipole>
   <energy>
    <i name="e_fr_energy">   -507.47195952 </i>
    <i name="e_wo_entrp">   -507.47506909 </i>
    <i name="e_0_energy">   -507.47299604 </i>
   </energy>
  </scstep>
  <scstep>
   <time name="dav">  192.09   27.59</time>
   <time name="total">  219.13   34.38</time>
   <dipole>
    <v name="dipole">      0.00000000       0.00000000      -0.04944943 </v>
    <i name="Tr[quadrupol]">  -7160.40858694 </i>
    <i name="Echarged">      0.00000000 </i>
    <i name="Edipol_quadrupol">      0.00000000 </i>
    <i name="Eion">      0.00000000 </i>
   </dipole>
   <energy>
    <i name="e_fr_energy">   -503.77901276 </i>
    <i name="e_wo_entrp">   -503.81253382 </i>
    <i name="e_0_energy">   -503.79018644 </i>
   </energy>
  </scstep>
  <scstep>
   <time name="dav">  157.35   22.56</time>
   <time name="total">  184.19   29.32</time>
   <dipole>
    <v name="dipole">      0.00000000       0.00000000       0.07982643 </v>
    <i name="Tr[quadrupol]">  -7161.93761098 </i>
    <i name="Echarged">      0.00000000 </i>
    <i name="Edipol_quadrupol">      0.00000000 </i>
    <i name="Eion">      0.00000000 </i>
   </dipole>
   <energy>
    <i name="e_fr_energy">   -503.26109655 </i>
    <i name="e_wo_entrp">   -503.29260906 </i>
    <i name="e_0_energy">   -503.27160072 </i>
   </energy>
  </scstep>
  <scstep>
   <time name="dav">  163.17   23.44</time>
   <time name="total">  190.04   30.22</time>
   <dipole>
    <v name="dipole">      0.00000000       0.00000000       0.15313520 </v>
    <i name="Tr[quadrupol]">  -7161.75228550 </i>
    <i name="Echarged">      0.00000000 </i>
    <i name="Edipol_quadrupol">      0.00000000 </i>
    <i name="Eion">      0.00000000 </i>
   </dipole>
   <energy>
    <i name="e_fr_energy">   -503.60088557 </i>
    <i name="e_wo_entrp">   -503.63825563 </i>
    <i name="e_0_energy">   -503.61334226 </i>
   </energy>
  </scstep>
  <scstep>
   <time name="dav">  154.04   22.12</time>
   <time name="total">  180.26   28.89</time>
   <dipole>
    <v name="dipole">      0.00000000       0.00000000       0.13325141 </v>
    <i name="Tr[quadrupol]">  -7162.03431270 </i>
    <i name="Echarged">      0.00000000 </i>
    <i name="Edipol_quadrupol">      0.00000000 </i>
    <i name="Eion">      0.00000000 </i>
   </dipole>
   <energy>
    <i name="e_fr_energy">   -503.73418369 </i>
    <i name="e_wo_entrp">   -503.76959985 </i>
    <i name="e_0_energy">   -503.74598908 </i>
   </energy>
  </scstep>
  <scstep>
   <time name="dav">  186.29   26.75</time>
   <time name="total">  213.19   33.49</time>
   <dipole>
    <v name="dipole">      0.00000000       0.00000000       0.11702597 </v>
    <i name="Tr[quadrupol]">  -7161.76160477 </i>
    <i name="Echarged">      0.00000000 </i>
    <i name="Edipol_quadrupol">      0.00000000 </i>
    <i name="Eion">      0.00000000 </i>
   </dipole>
   <energy>
    <i name="e_fr_energy">   -503.92896285 </i>
    <i name="e_wo_entrp">   -503.95880589 </i>
    <i name="e_0_energy">   -503.93891053 </i>
   </energy>
  </scstep>
  <scstep>
   <time name="dav">  164.23   23.61</time>
   <time name="total">  190.92   30.37</time>
   <dipole>
    <v name="dipole">      0.00000000       0.00000000       0.12295875 </v>
    <i name="Tr[quadrupol]">  -7161.74190833 </i>
    <i name="Echarged">      0.00000000 </i>
    <i name="Edipol_quadrupol">      0.00000000 </i>
    <i name="Eion">      0.00000000 </i>
   </dipole>
   <energy>
    <i name="e_fr_energy">   -503.98890361 </i>
    <i name="e_wo_entrp">   -504.01695847 </i>
    <i name="e_0_energy">   -503.99825523 </i>
   </energy>
  </scstep>
  <scstep>
   <time name="dav">  172.02   24.67</time>
   <time name="total">  198.41   31.45</time>
   <dipole>
    <v name="dipole">      0.00000000       0.00000000       0.12868030 </v>
    <i name="Tr[quadrupol]">  -7161.75856517 </i>
    <i name="Echarged">      0.00000000 </i>
    <i name="Edipol_quadrupol">      0.00000000 </i>
    <i name="Eion">      0.00000000 </i>
   </dipole>
   <energy>
    <i name="e_fr_energy">   -503.97379615 </i>
    <i name="e_wo_entrp">   -504.00259729 </i>
    <i name="e_0_energy">   -503.98339653 </i>
   </energy>
  </scstep>
  <scstep>
   <time name="dav">  183.99   26.39</time>
   <time name="total">  211.00   33.18</time>
   <dipole>
    <v name="dipole">      0.00000000       0.00000000       0.13124601 </v>
    <i name="Tr[quadrupol]">  -7161.76043085 </i>
    <i name="Echarged">      0.00000000 </i>
    <i name="Edipol_quadrupol">      0.00000000 </i>
    <i name="Eion">      0.00000000 </i>
   </dipole>
   <energy>
    <i name="e_fr_energy">   -503.96303161 </i>
    <i name="e_wo_entrp">   -503.99187331 </i>
    <i name="e_0_energy">   -503.97264551 </i>
   </energy>
  </scstep>
  <scstep>
   <time name="dav">  186.76   26.80</time>
   <time name="total">  213.60   33.60</time>
   <dipole>
    <v name="dipole">      0.00000000       0.00000000       0.13456474 </v>
    <i name="Tr[quadrupol]">  -7161.73126279 </i>
    <i name="Echarged">      0.00000000 </i>
    <i name="Edipol_quadrupol">      0.00000000 </i>
    <i name="Eion">      0.00000000 </i>
   </dipole>
   <energy>
    <i name="e_fr_energy">   -503.95513351 </i>
    <i name="e_wo_entrp">   -503.98470480 </i>
    <i name="e_0_energy">   -503.96499061 </i>
   </energy>
  </scstep>
  <scstep>
   <time name="dav">  179.59   25.76</time>
   <time name="total">  206.67   32.55</time>
   <dipole>
    <v name="dipole">      0.00000000       0.00000000       0.13335633 </v>
    <i name="Tr[quadrupol]">  -7161.74856743 </i>
    <i name="Echarged">      0.00000000 </i>
    <i name="Edipol_quadrupol">      0.00000000 </i>
    <i name="Eion">      0.00000000 </i>
   </dipole>
   <energy>
    <i name="e_fr_energy">   -503.94947431 </i>
    <i name="e_wo_entrp">   -503.97927991 </i>
    <i name="e_0_energy">   -503.95940951 </i>
   </energy>
  </scstep>
  <scstep>
   <time name="dav">  177.76   25.63</time>
   <time name="total">  204.03   32.44</time>
   <dipole>
    <v name="dipole">      0.00000000       0.00000000       0.12811639 </v>
    <i name="Tr[quadrupol]">  -7161.72186461 </i>
    <i name="Echarged">      0.00000000 </i>
    <i name="Edipol_quadrupol">      0.00000000 </i>
    <i name="Eion">      0.00000000 </i>
   </dipole>
   <energy>
    <i name="e_fr_energy">   -503.94595599 </i>
[...]
       <r>   -39.0392    -0.0010    42.0000 </r>
       <r>   -38.8686    -0.0000    42.0000 </r>
       <r>   -38.6981    -0.0000    42.0000 </r>
       <r>   -38.5275     0.0000    42.0000 </r>
       <r>   -38.3570     0.0000    42.0000 </r>
       <r>   -38.1864     0.0000    42.0000 </r>
       <r>   -38.0158     0.0000    42.0000 </r>
       <r>   -37.8453     0.0000    42.0000 </r>
       <r>   -37.6747     0.0000    42.0000 </r>
       <r>   -37.5042     0.0000    42.0000 </r>
       <r>   -37.3336     0.0000    42.0000 </r>
       <r>   -37.1630     0.0000    42.0000 </r>
       <r>   -36.9925     0.0000    42.0000 </r>
       <r>   -36.8219     0.0000    42.0000 </r>
       <r>   -36.6513     0.0000    42.0000 </r>
       <r>   -36.4808     0.0000    42.0000 </r>
       <r>   -36.3102     0.0000    42.0000 </r>
       <r>   -36.1397     0.0000    42.0000 </r>
       <r>   -35.9691     0.0000    42.0000 </r>
       <r>   -35.7985     0.0000    42.0000 </r>
       <r>   -35.6280     0.0000    42.0000 </r>
       <r>   -35.4574     0.0000    42.0000 </r>
       <r>   -35.2869     0.0000    42.0000 </r>
       <r>   -35.1163     0.0000    42.0000 </r>
       <r>   -34.9457     0.0000    42.0000 </r>
       <r>   -34.7752     0.0000    42.0000 </r>
       <r>   -34.6046     0.0000    42.0000 </r>
       <r>   -34.4341     0.0000    42.0000 </r>
       <r>   -34.2635     0.0000    42.0000 </r>
       <r>   -34.0929     0.0000    42.0000 </r>
       <r>   -33.9224     0.0000    42.0000 </r>
       <r>   -33.7518     0.0000    42.0000 </r>
       <r>   -33.5813     0.0000    42.0000 </r>
       <r>   -33.4107     0.0000    42.0000 </r>
       <r>   -33.2401     0.0000    42.0000 </r>
       <r>   -33.0696     0.0000    42.0000 </r>
       <r>   -32.8990     0.0000    42.0000 </r>
       <r>   -32.7284     0.0000    42.0000 </r>
       <r>   -32.5579     0.0000    42.0000 </r>
       <r>   -32.3873     0.0000    42.0000 </r>
       <r>   -32.2168     0.0000    42.0000 </r>
       <r>   -32.0462     0.0000    42.0000 </r>
       <r>   -31.8756     0.0000    42.0000 </r>
       <r>   -31.7051     0.0000    42.0000 </r>
       <r>   -31.5345     0.0000    42.0000 </r>
       <r>   -31.3640     0.0000    42.0000 </r>
       <r>   -31.1934     0.0000    42.0000 </r>
       <r>   -31.0228     0.0000    42.0000 </r>
       <r>   -30.8523     0.0000    42.0000 </r>
       <r>   -30.6817     0.0000    42.0000 </r>
       <r>   -30.5112     0.0000    42.0000 </r>
       <r>   -30.3406     0.0000    42.0000 </r>
       <r>   -30.1700     0.0000    42.0000 </r>
       <r>   -29.9995     0.0000    42.0000 </r>
       <r>   -29.8289     0.0000    42.0000 </r>
       <r>   -29.6583     0.0000    42.0000 </r>
       <r>   -29.4878     0.0000    42.0000 </r>
       <r>   -29.3172     0.0000    42.0000 </r>
       <r>   -29.1467     0.0000    42.0000 </r>
       <r>   -28.9761     0.0000    42.0000 </r>
       <r>   -28.8055     0.0000    42.0000 </r>
       <r>   -28.6350     0.0000    42.0000 </r>
       <r>   -28.4644     0.0000    42.0000 </r>
       <r>   -28.2939     0.0000    42.0000 </r>
       <r>   -28.1233     0.0000    42.0000 </r>
       <r>   -27.9527     0.0000    42.0000 </r>
       <r>   -27.7822     0.0000    42.0000 </r>
       <r>   -27.6116     0.0000    42.0000 </r>
       <r>   -27.4411     0.0000    42.0000 </r>
       <r>   -27.2705     0.0000    42.0000 </r>
       <r>   -27.0999     0.0000    42.0000 </r>
       <r>   -26.9294     0.0000    42.0000 </r>
       <r>   -26.7588     0.0000    42.0000 </r>
       <r>   -26.5883     0.0000    42.0000 </r>
       <r>   -26.4177     0.0000    42.0000 </r>
       <r>   -26.2471     0.0000    42.0000 </r>
       <r>   -26.0766     0.0000    42.0000 </r>
       <r>   -25.9060     0.0000    42.0000 </r>
       <r>   -25.7354     0.0000    42.0000 </r>
       <r>   -25.5649     0.0000    42.0000 </r>
       <r>   -25.3943     0.0000    42.0000 </r>
       <r>   -25.2238     0.0000    42.0000 </r>
       <r>   -25.0532     0.0000    42.0000 </r>
       <r>   -24.8826     0.0000    42.0000 </r>
       <r>   -24.7121     0.0000    42.0000 </r>
       <r>   -24.5415     0.0000    42.0000 </r>
       <r>   -24.3710     0.0000    42.0000 </r>
       <r>   -24.2004     0.0000    42.0000 </r>
       <r>   -24.0298     0.0000    42.0000 </r>
       <r>   -23.8593     0.0000    42.0000 </r>
       <r>   -23.6887     0.0000    42.0000 </r>
       <r>   -23.5182     0.0000    42.0000 </r>
       <r>   -23.3476     0.0000    42.0000 </r>
       <r>   -23.1770     0.0000    42.0000 </r>
       <r>   -23.0065     0.0000    42.0000 </r>
       <r>   -22.8359     0.0000    42.0000 </r>
       <r>   -22.6653     0.0000    42.0000 </r>
       <r>   -22.4948     0.0000    42.0000 </r>
       <r>   -22.3242     0.0000    42.0000 </r>
       <r>   -22.1537     0.0000    42.0000 </r>
       <r>   -21.9831     0.0000    42.0000 </r>
       <r>   -21.8125     0.0000    42.0000 </r>
       <r>   -21.6420     0.0000    42.0000 </r>
       <r>   -21.4714     0.0000    42.0000 </r>
       <r>   -21.3009     0.0000    42.0000 </r>
       <r>   -21.1303     0.0000    42.0000 </r>
       <r>   -20.9597     0.0000    42.0000 </r>
       <r>   -20.7892     0.0000    42.0000 </r>
       <r>   -20.6186     0.0000    42.0000 </r>
       <r>   -20.4481     0.0000    42.0000 </r>
       <r>   -20.2775     0.0000    42.0000 </r>
       <r>   -20.1069     0.0000    42.0000 </r>
       <r>   -19.9364     0.0000    42.0000 </r>
       <r>   -19.7658     0.0000    42.0000 </r>
       <r>   -19.5953     0.0000    42.0000 </r>
       <r>   -19.4247     0.0000    42.0000 </r>
       <r>   -19.2541     0.0000    42.0000 </r>
       <r>   -19.0836     0.0000    42.0000 </r>
       <r>   -18.9130     0.0000    42.0000 </r>
       <r>   -18.7424     0.0000    42.0000 </r>
       <r>   -18.5719     0.0000    42.0000 </r>
       <r>   -18.4013     0.0000    42.0000 </r>
       <r>   -18.2308     0.0000    42.0000 </r>
       <r>   -18.0602     0.0000    42.0000 </r>
       <r>   -17.8896     0.0000    42.0000 </r>
       <r>   -17.7191     0.0000    42.0000 </r>
       <r>   -17.5485     0.0000    42.0000 </r>
       <r>   -17.3780     0.0000    42.0000 </r>
       <r>   -17.2074     0.0000    42.0000 </r>
       <r>   -17.0368     0.0000    42.0000 </r>
       <r>   -16.8663     0.0000    42.0000 </r>
       <r>   -16.6957    -0.0000    42.0000 </r>
       <r>   -16.5252    -0.0000    42.0000 </r>
       <r>   -16.3546    -0.0000    42.0000 </r>
       <r>   -16.1840    -0.0000    42.0000 </r>
       <r>   -16.0135    -0.0000    42.0000 </r>
       <r>   -15.8429    -0.0050    41.9991 </r>
       <r>   -15.6724    -0.3985    41.9312 </r>
       <r>   -15.5018     2.0330    42.2779 </r>
       <r>   -15.3312    21.9717    46.0254 </r>
       <r>   -15.1607     6.4291    47.1220 </r>
       <r>   -14.9901    -0.6946    47.0035 </r>
       <r>   -14.8195    -0.0205    47.0000 </r>
       <r>   -14.6490    -0.0000    47.0000 </r>
       <r>   -14.4784    -0.0000    47.0000 </r>
       <r>   -14.3079    -0.0000    47.0000 </r>
       <r>   -14.1373     0.0000    47.0000 </r>
       <r>   -13.9667     0.0000    47.0000 </r>
       <r>   -13.7962     0.0000    47.0000 </r>
       <r>   -13.6256     0.0000    47.0000 </r>
       <r>   -13.4551     0.0000    47.0000 </r>
       <r>   -13.2845     0.0000    47.0000 </r>
       <r>   -13.1139     0.0000    47.0000 </r>
       <r>   -12.9434     0.0000    47.0000 </r>
       <r>   -12.7728     0.0000    47.0000 </r>
       <r>   -12.6023     0.0000    47.0000 </r>
       <r>   -12.4317     0.0000    47.0000 </r>
       <r>   -12.2611     0.0000    47.0000 </r>
       <r>   -12.0906     0.0000    47.0000 </r>
       <r>   -11.9200     0.0000    47.0000 </r>
       <r>   -11.7494     0.0000    47.0000 </r>
       <r>   -11.5789     0.0000    47.0000 </r>
       <r>   -11.4083     0.0000    47.0000 </r>
       <r>   -11.2378     0.0000    47.0000 </r>
       <r>   -11.0672     0.0000    47.0000 </r>
       <r>   -10.8966     0.0000    47.0000 </r>
       <r>   -10.7261     0.0000    47.0000 </r>
       <r>   -10.5555     0.0000    47.0000 </r>
       <r>   -10.3850     0.0000    47.0000 </r>
       <r>   -10.2144     0.0000    47.0000 </r>
       <r>   -10.0438     0.0000    47.0000 </r>
       <r>    -9.8733     0.0000    47.0000 </r>
       <r>    -9.7027     0.0000    47.0000 </r>
       <r>    -9.5322     0.0000    47.0000 </r>
       <r>    -9.3616     0.0000    47.0000 </r>
       <r>    -9.1910     0.0000    47.0000 </r>
       <r>    -9.0205     0.0000    47.0000 </r>
       <r>    -8.8499     0.0000    47.0000 </r>
       <r>    -8.6794    -0.0000    47.0000 </r>
       <r>    -8.5088    -0.0000    47.0000 </r>
       <r>    -8.3382    -0.0000    47.0000 </r>
       <r>    -8.1677    -0.0000    47.0000 </r>
       <r>    -7.9971    -0.0000    47.0000 </r>
       <r>    -7.8265    -0.0014    46.9998 </r>
       <r>    -7.6560    -0.1048    46.9819 </r>
       <r>    -7.4854     0.6594    47.0944 </r>
       <r>    -7.3149     4.7007    47.8961 </r>
       <r>    -7.1443     0.7468    48.0235 </r>
       <r>    -6.9737     0.9280    48.1818 </r>
       <r>    -6.8032     1.8065    48.4899 </r>
       <r>    -6.6326     0.6991    48.6091 </r>
       <r>    -6.4621     2.2300    48.9895 </r>
       <r>    -6.2915     1.8991    49.3134 </r>
       <r>    -6.1209     0.1710    49.3426 </r>
       <r>    -5.9504     2.2966    49.7343 </r>
       <r>    -5.7798     4.6368    50.5251 </r>
       <r>    -5.6093     2.4732    50.9470 </r>
       <r>    -5.4387     3.2456    51.5005 </r>
       <r>    -5.2681     3.3596    52.0736 </r>
       <r>    -5.0976     1.2800    52.2919 </r>
       <r>    -4.9270     5.1125    53.1639 </r>
       <r>    -4.7564     5.0986    54.0335 </r>
       <r>    -4.5859     3.2242    54.5834 </r>
       <r>    -4.4153     4.4754    55.3467 </r>
       <r>    -4.2448     3.9664    56.0233 </r>
       <r>    -4.0742     8.9321    57.5467 </r>
       <r>    -3.9036     6.6852    58.6870 </r>
       <r>    -3.7331     7.2645    59.9260 </r>
       <r>    -3.5625     6.9312    61.1082 </r>
       <r>    -3.3920     8.2132    62.5091 </r>
       <r>    -3.2214    13.9752    64.8927 </r>
       <r>    -3.0508    17.8216    67.9324 </r>
       <r>    -2.8803    20.0595    71.3537 </r>
       <r>    -2.7097    21.8222    75.0757 </r>
       <r>    -2.5392    19.4592    78.3947 </r>
       <r>    -2.3686    25.3510    82.7186 </r>
       <r>    -2.1980    28.1666    87.5227 </r>
       <r>    -2.0275    29.8384    92.6120 </r>
       <r>    -1.8569    33.7402    98.3668 </r>
       <r>    -1.6864    35.6274   104.4434 </r>
       <r>    -1.5158    37.8478   110.8988 </r>
       <r>    -1.3452    44.7160   118.5256 </r>
       <r>    -1.1747    49.3213   126.9378 </r>
       <r>    -1.0041    48.7891   135.2594 </r>
       <r>    -0.8335    50.3747   143.8513 </r>
       <r>    -0.6630    58.5377   153.8356 </r>
       <r>    -0.4924    62.9038   164.5645 </r>
       <r>    -0.3219    66.2806   175.8694 </r>
       <r>    -0.1513    63.8350   186.7571 </r>
       <r>     0.0193    56.1535   196.3347 </r>
       <r>     0.1898    43.3804   203.7337 </r>
       <r>     0.3604    33.4034   209.4310 </r>
       <r>     0.5309    26.3643   213.9278 </r>
       <r>     0.7015    28.0351   218.7094 </r>
       <r>     0.8721    33.1661   224.3663 </r>
       <r>     1.0426    38.4434   230.9232 </r>
       <r>     1.2132    47.6218   239.0457 </r>
       <r>     1.3837    55.1275   248.4483 </r>
       <r>     1.5543    60.8985   258.8352 </r>
       <r>     1.7249    68.8865   270.5845 </r>
       <r>     1.8954    69.6540   282.4648 </r>
       <r>     2.0660    74.0853   295.1008 </r>
       <r>     2.2365    87.0245   309.9438 </r>
       <r>     2.4071    93.4172   325.8771 </r>
       <r>     2.5777    96.8706   342.3995 </r>
       <r>     2.7482    73.2652   354.8957 </r>
       <r>     2.9188    49.0630   363.2639 </r>
       <r>     3.0894    34.6008   369.1654 </r>
       <r>     3.2599    11.6332   371.1496 </r>
       <r>     3.4305    -0.7943   371.0141 </r>
       <r>     3.6010    -0.0824   371.0001 </r>
       <r>     3.7716    -0.0003   371.0000 </r>
       <r>     3.9422    -0.0000   371.0000 </r>
       <r>     4.1127    -0.0000   371.0000 </r>
       <r>     4.2833     0.0000   371.0000 </r>
       <r>     4.4538     0.0000   371.0000 </r>
       <r>     4.6244     0.0000   371.0000 </r>
       <r>     4.7950     0.0000   371.0000 </r>
       <r>     4.9655     0.0000   371.0000 </r>
       <r>     5.1361     0.0000   371.0000 </r>
       <r>     5.3066     0.0000   371.0000 </r>
       <r>     5.4772     0.0000   371.0000 </r>
      </set>
     </set>
    </array>
   </total>
  </dos>
 </calculation>
 <structure name="finalpos" >
  <crystal>
   <varray name="basis" >
    <v>       8.53269958       0.00000000       0.00000000 </v>
    <v>      -0.00051933       8.49699972       0.00000000 </v>
    <v>       0.00000000       0.00000000      23.59499931 </v>
   </varray>
   <i name="volume">   1710.69280467 </i>
   <varray name="rec_basis" >
    <v>       0.11719620       0.00000716       0.00000000 </v>
    <v>       0.00000000       0.11768860       0.00000000 </v>
    <v>       0.00000000       0.00000000       0.04238186 </v>
   </varray>
  </crystal>
  <varray name="positions" >
   <v>       0.00086000       0.99993000       0.24271000 </v>
   <v>       0.16563197       0.16689272       0.30267213 </v>
   <v>       0.49945875       0.16083156       0.30209605 </v>
   <v>       0.66822000       0.00107000       0.24272000 </v>
   <v>       0.83567803       0.16761142       0.30158044 </v>
   <v>       0.00044000       0.33497000       0.24240000 </v>
   <v>       0.16908596       0.50432933       0.30359207 </v>
   <v>       0.33469000       0.33305000       0.24267000 </v>
   <v>       0.49805898       0.50477233       0.30286473 </v>
   <v>       0.83356719       0.50066360       0.30142484 </v>
   <v>       0.16842387       0.83125233       0.30398063 </v>
   <v>       0.33342000       0.66555000       0.24261000 </v>
   <v>       0.83608298       0.83258393       0.30181335 </v>
   <v>       0.00064000       0.00119000       0.00199000 </v>
   <v>       0.00160129       0.00355220       0.36072032 </v>
   <v>       0.16843000       0.16962000       0.06269000 </v>
   <v>       0.33460000       0.00297000       0.00254000 </v>
   <v>       0.32931288       0.00423711       0.36192236 </v>
   <v>       0.50463000       0.16850000       0.06120000 </v>
   <v>       0.83272000       0.16670000       0.06193000 </v>
   <v>       0.00004000       0.33467000       0.00213000 </v>
   <v>       0.00341893       0.33559974       0.35955122 </v>
   <v>       0.16757000       0.49895000       0.06268000 </v>
   <v>       0.50099000       0.49896000       0.06206000 </v>
   <v>       0.83393000       0.50234000       0.06235000 </v>
   <v>       0.00121000       0.66785000       0.00188000 </v>
   <v>       0.99436039       0.66453337       0.36064469 </v>
   <v>       0.16792000       0.83462000       0.06228000 </v>
   <v>       0.33437000       0.66664000       0.00225000 </v>
   <v>       0.50152000       0.83563000       0.06217000 </v>
   <v>       0.66753000       0.66705000       0.00175000 </v>
   <v>       0.66820935       0.66599714       0.35878875 </v>
   <v>       0.83293000       0.83584000       0.06235000 </v>
   <v>       0.00121000       0.00098000       0.12225000 </v>
   <v>       0.16700000       0.16811000       0.18239000 </v>
   <v>       0.33470000       0.00227000       0.12192000 </v>
   <v>       0.50174000       0.16716000       0.18263000 </v>
   <v>       0.83421000       0.16639000       0.18283000 </v>
   <v>       0.16964000       0.49868000       0.18209000 </v>
   <v>       0.50219000       0.50081000       0.18317000 </v>
   <v>       0.66741000       0.33395000       0.12233000 </v>
   <v>       0.83134000       0.50253000       0.18283000 </v>
   <v>       0.00132000       0.66795000       0.12253000 </v>
   <v>       0.16898000       0.83509000       0.18243000 </v>
   <v>       0.33446000       0.66703000       0.12223000 </v>
   <v>       0.49971000       0.83538000       0.18278000 </v>
   <v>       0.66698000       0.66840000       0.12259000 </v>
   <v>       0.83488000       0.83403000       0.18294000 </v>
   <v>       0.33558000       0.99863000       0.24353000 </v>
   <v>       0.66801000       0.33262000       0.24229000 </v>
   <v>       0.00448000       0.66739000       0.24217000 </v>
   <v>       0.49537595       0.83504644       0.30398347 </v>
   <v>       0.66521000       0.67351000       0.24327000 </v>
   <v>       0.66620000       0.99680000       0.00000000 </v>
   <v>       0.66424298       0.99383088       0.36161919 </v>
   <v>       0.33213000       0.33386000       0.00135000 </v>
   <v>       0.33640112       0.33513058       0.36264845 </v>
   <v>       0.67040000       0.33673000       0.00321000 </v>
   <v>       0.66494304       0.33085229       0.36644380 </v>
   <v>       0.66728000       0.99998000       0.12246000 </v>
   <v>       0.99806000       0.33495000       0.12235000 </v>
   <v>       0.33675000       0.33238000       0.12261000 </v>
   <v>       0.49936276       0.14652796       0.44691521 </v>
  </varray>
  <varray name="selective"  type="logical" >
   <v type="logical" >  F  F  F </v>
   <v type="logical" >  T  T  T </v>
   <v type="logical" >  T  T  T </v>
   <v type="logical" >  F  F  F </v>
   <v type="logical" >  T  T  T </v>
   <v type="logical" >  F  F  F </v>
   <v type="logical" >  T  T  T </v>
   <v type="logical" >  F  F  F </v>
   <v type="logical" >  T  T  T </v>
   <v type="logical" >  T  T  T </v>
   <v type="logical" >  T  T  T </v>
   <v type="logical" >  F  F  F </v>
   <v type="logical" >  T  T  T </v>
   <v type="logical" >  F  F  F </v>
   <v type="logical" >  T  T  T </v>
   <v type="logical" >  F  F  F </v>
   <v type="logical" >  F  F  F </v>
   <v type="logical" >  T  T  T </v>
   <v type="logical" >  F  F  F </v>
   <v type="logical" >  F  F  F </v>
   <v type="logical" >  F  F  F </v>
   <v type="logical" >  T  T  T </v>
   <v type="logical" >  F  F  F </v>
   <v type="logical" >  F  F  F </v>
   <v type="logical" >  F  F  F </v>
   <v type="logical" >  F  F  F </v>
   <v type="logical" >  T  T  T </v>
   <v type="logical" >  F  F  F </v>
   <v type="logical" >  F  F  F </v>
   <v type="logical" >  F  F  F </v>
   <v type="logical" >  F  F  F </v>
   <v type="logical" >  T  T  T </v>
   <v type="logical" >  F  F  F </v>
   <v type="logical" >  F  F  F </v>
   <v type="logical" >  F  F  F </v>
   <v type="logical" >  F  F  F </v>
   <v type="logical" >  F  F  F </v>
   <v type="logical" >  F  F  F </v>
   <v type="logical" >  F  F  F </v>
   <v type="logical" >  F  F  F </v>
   <v type="logical" >  F  F  F </v>
   <v type="logical" >  F  F  F </v>
   <v type="logical" >  F  F  F </v>
   <v type="logical" >  F  F  F </v>
   <v type="logical" >  F  F  F </v>
   <v type="logical" >  F  F  F </v>
   <v type="logical" >  F  F  F </v>
   <v type="logical" >  F  F  F </v>
   <v type="logical" >  F  F  F </v>
   <v type="logical" >  F  F  F </v>
   <v type="logical" >  F  F  F </v>
   <v type="logical" >  T  T  T </v>
   <v type="logical" >  F  F  F </v>
   <v type="logical" >  F  F  F </v>
   <v type="logical" >  T  T  T </v>
   <v type="logical" >  F  F  F </v>
   <v type="logical" >  T  T  T </v>
   <v type="logical" >  F  F  F </v>
   <v type="logical" >  T  T  T </v>
   <v type="logical" >  F  F  F </v>
   <v type="logical" >  F  F  F </v>
   <v type="logical" >  F  F  F </v>
   <v type="logical" >  T  T  T </v>
  </varray>
  <nose>
   <v>      -3.00000000       0.00000000       0.00010000       0.00010000 </v>
  </nose>
 </structure>
</modeling>
