ni3al                                   
           1
     8.532700    0.000000    0.000000
    -0.000519    8.497000    0.000000
     0.000000    0.000000   23.594999
   Fe   Cr   Pb
    48    14     1
Direct configuration=     1
   0.00086000  0.99993000  0.24271000
   0.16518108  0.16628776  0.30293635
   0.49952769  0.16150146  0.30051064
   0.66822000  0.00107000  0.24272000
   0.83540605  0.16719181  0.30201547
   0.00044000  0.33497000  0.24240000
   0.17003923  0.50377992  0.30438006
   0.33469000  0.33305000  0.24267000
   0.49794545  0.50692546  0.30261104
   0.83350303  0.49977551  0.30155869
   0.16980569  0.83135723  0.30448561
   0.33342000  0.66555000  0.24261000
   0.83563525  0.83323349  0.30207079
   0.00064000  0.00119000  0.00199000
   0.00169283  0.00134563  0.36016866
   0.16843000  0.16962000  0.06269000
   0.33460000  0.00297000  0.00254000
   0.33298710  0.01077992  0.36233171
   0.50463000  0.16850000  0.06120000
   0.83272000  0.16670000  0.06193000
   0.00004000  0.33467000  0.00213000
   0.00330980  0.33456125  0.35986633
   0.16757000  0.49895000  0.06268000
   0.50099000  0.49896000  0.06206000
   0.83393000  0.50234000  0.06235000
   0.00121000  0.66785000  0.00188000
   0.99397154  0.66457574  0.36058292
   0.16792000  0.83462000  0.06228000
   0.33437000  0.66664000  0.00225000
   0.50152000  0.83563000  0.06217000
   0.66753000  0.66705000  0.00175000
   0.66771955  0.66560127  0.35896199
   0.83293000  0.83584000  0.06235000
   0.00121000  0.00098000  0.12225000
   0.16700000  0.16811000  0.18239000
   0.33470000  0.00227000  0.12192000
   0.50174000  0.16716000  0.18263000
   0.83421000  0.16639000  0.18283000
   0.16964000  0.49868000  0.18209000
   0.50219000  0.50081000  0.18317000
   0.66741000  0.33395000  0.12233000
   0.83134000  0.50253000  0.18283000
   0.00132000  0.66795000  0.12253000
   0.16898000  0.83509000  0.18243000
   0.33446000  0.66703000  0.12223000
   0.49971000  0.83538000  0.18278000
   0.66698000  0.66840000  0.12259000
   0.83488000  0.83403000  0.18294000
   0.33558000  0.99863000  0.24353000
   0.66801000  0.33262000  0.24229000
   0.00448000  0.66739000  0.24217000
   0.49700961  0.83449527  0.30353281
   0.66521000  0.67351000  0.24327000
   0.66620000  0.99680000  0.00000000
   0.65741120  0.99737461  0.36440436
   0.33213000  0.33386000  0.00135000
   0.34161521  0.32741666  0.36244025
   0.67040000  0.33673000  0.00321000
   0.65913892  0.33109159  0.36693066
   0.66728000  0.99998000  0.12246000
   0.99806000  0.33495000  0.12235000
   0.33675000  0.33238000  0.12261000
   0.49952769  0.16150146  0.42000000
Direct configuration=     2
   0.00086000  0.99993000  0.24271000
   0.16493478  0.16681591  0.30271606
   0.50016350  0.16122124  0.29994929
   0.66822000  0.00107000  0.24272000
   0.83528546  0.16730617  0.30197415
   0.00044000  0.33497000  0.24240000
   0.17027508  0.50338399  0.30427143
   0.33469000  0.33305000  0.24267000
   0.49760042  0.50649707  0.30268222
   0.83322707  0.49975055  0.30161496
   0.16981528  0.83141025  0.30438038
   0.33342000  0.66555000  0.24261000
   0.83563782  0.83323087  0.30217752
   0.00064000  0.00119000  0.00199000
   0.00135673  0.00118967  0.36029801
   0.16843000  0.16962000  0.06269000
   0.33460000  0.00297000  0.00254000
   0.32166935  0.00046630  0.35863979
   0.50463000  0.16850000  0.06120000
   0.83272000  0.16670000  0.06193000
   0.00004000  0.33467000  0.00213000
   0.00332743  0.33474110  0.35989188
   0.16757000  0.49895000  0.06268000
   0.50099000  0.49896000  0.06206000
   0.83393000  0.50234000  0.06235000
   0.00121000  0.66785000  0.00188000
   0.99381654  0.66458457  0.36055863
   0.16792000  0.83462000  0.06228000
   0.33437000  0.66664000  0.00225000
   0.50152000  0.83563000  0.06217000
   0.66753000  0.66705000  0.00175000
   0.66798128  0.66571453  0.35894886
   0.83293000  0.83584000  0.06235000
   0.00121000  0.00098000  0.12225000
   0.16700000  0.16811000  0.18239000
   0.33470000  0.00227000  0.12192000
   0.50174000  0.16716000  0.18263000
   0.83421000  0.16639000  0.18283000
   0.16964000  0.49868000  0.18209000
   0.50219000  0.50081000  0.18317000
   0.66741000  0.33395000  0.12233000
   0.83134000  0.50253000  0.18283000
   0.00132000  0.66795000  0.12253000
   0.16898000  0.83509000  0.18243000
   0.33446000  0.66703000  0.12223000
   0.49971000  0.83538000  0.18278000
   0.66698000  0.66840000  0.12259000
   0.83488000  0.83403000  0.18294000
   0.33558000  0.99863000  0.24353000
   0.66801000  0.33262000  0.24229000
   0.00448000  0.66739000  0.24217000
   0.49663845  0.83474167  0.30353407
   0.66521000  0.67351000  0.24327000
   0.66620000  0.99680000  0.00000000
   0.67145354  0.98366626  0.35984540
   0.33213000  0.33386000  0.00135000
   0.32829485  0.34137854  0.35814879
   0.67040000  0.33673000  0.00321000
   0.67302026  0.34521214  0.36236117
   0.66728000  0.99998000  0.12246000
   0.99806000  0.33495000  0.12235000
   0.33675000  0.33238000  0.12261000
   0.49689985  0.15758514  0.43752102
Direct configuration=     3
   0.00086000  0.99993000  0.24271000
   0.16496606  0.16674884  0.30274403
   0.50008277  0.16125682  0.30002057
   0.66822000  0.00107000  0.24272000
   0.83530078  0.16729165  0.30197940
   0.00044000  0.33497000  0.24240000
   0.17024513  0.50343427  0.30428522
   0.33469000  0.33305000  0.24267000
   0.49764423  0.50655147  0.30267318
   0.83326211  0.49975372  0.30160782
   0.16981406  0.83140352  0.30439374
   0.33342000  0.66555000  0.24261000
   0.83563749  0.83323121  0.30216397
   0.00064000  0.00119000  0.00199000
   0.00139941  0.00120947  0.36028158
   0.16843000  0.16962000  0.06269000
   0.33460000  0.00297000  0.00254000
   0.32310648  0.00177592  0.35910859
   0.50463000  0.16850000  0.06120000
   0.83272000  0.16670000  0.06193000
   0.00004000  0.33467000  0.00213000
   0.00332519  0.33471826  0.35988863
   0.16757000  0.49895000  0.06268000
   0.50099000  0.49896000  0.06206000
   0.83393000  0.50234000  0.06235000
   0.00121000  0.66785000  0.00188000
   0.99383622  0.66458345  0.36056172
   0.16792000  0.83462000  0.06228000
   0.33437000  0.66664000  0.00225000
   0.50152000  0.83563000  0.06217000
   0.66753000  0.66705000  0.00175000
   0.66794804  0.66570015  0.35895053
   0.83293000  0.83584000  0.06235000
   0.00121000  0.00098000  0.12225000
   0.16700000  0.16811000  0.18239000
   0.33470000  0.00227000  0.12192000
   0.50174000  0.16716000  0.18263000
   0.83421000  0.16639000  0.18283000
   0.16964000  0.49868000  0.18209000
   0.50219000  0.50081000  0.18317000
   0.66741000  0.33395000  0.12233000
   0.83134000  0.50253000  0.18283000
   0.00132000  0.66795000  0.12253000
   0.16898000  0.83509000  0.18243000
   0.33446000  0.66703000  0.12223000
   0.49971000  0.83538000  0.18278000
   0.66698000  0.66840000  0.12259000
   0.83488000  0.83403000  0.18294000
   0.33558000  0.99863000  0.24353000
   0.66801000  0.33262000  0.24229000
   0.00448000  0.66739000  0.24217000
   0.49668558  0.83471039  0.30353391
   0.66521000  0.67351000  0.24327000
   0.66620000  0.99680000  0.00000000
   0.66967044  0.98540695  0.36042430
   0.33213000  0.33386000  0.00135000
   0.32998627  0.33960566  0.35869372
   0.67040000  0.33673000  0.00321000
   0.67125760  0.34341911  0.36294140
   0.66728000  0.99998000  0.12246000
   0.99806000  0.33495000  0.12235000
   0.33675000  0.33238000  0.12261000
   0.49723353  0.15808243  0.43529620
Direct configuration=     4
   0.00086000  0.99993000  0.24271000
   0.16496085  0.16676001  0.30273937
   0.50009621  0.16125090  0.30000871
   0.66822000  0.00107000  0.24272000
   0.83529823  0.16729406  0.30197853
   0.00044000  0.33497000  0.24240000
   0.17025012  0.50342590  0.30428293
   0.33469000  0.33305000  0.24267000
   0.49763694  0.50654241  0.30267468
   0.83325628  0.49975319  0.30160901
   0.16981427  0.83140464  0.30439152
   0.33342000  0.66555000  0.24261000
   0.83563754  0.83323115  0.30216623
   0.00064000  0.00119000  0.00199000
   0.00139230  0.00120618  0.36028432
   0.16843000  0.16962000  0.06269000
   0.33460000  0.00297000  0.00254000
   0.32286723  0.00155790  0.35903055
   0.50463000  0.16850000  0.06120000
   0.83272000  0.16670000  0.06193000
   0.00004000  0.33467000  0.00213000
   0.00332557  0.33472207  0.35988917
   0.16757000  0.49895000  0.06268000
   0.50099000  0.49896000  0.06206000
   0.83393000  0.50234000  0.06235000
   0.00121000  0.66785000  0.00188000
   0.99383294  0.66458364  0.36056121
   0.16792000  0.83462000  0.06228000
   0.33437000  0.66664000  0.00225000
   0.50152000  0.83563000  0.06217000
   0.66753000  0.66705000  0.00175000
   0.66795357  0.66570255  0.35895025
   0.83293000  0.83584000  0.06235000
   0.00121000  0.00098000  0.12225000
   0.16700000  0.16811000  0.18239000
   0.33470000  0.00227000  0.12192000
   0.50174000  0.16716000  0.18263000
   0.83421000  0.16639000  0.18283000
   0.16964000  0.49868000  0.18209000
   0.50219000  0.50081000  0.18317000
   0.66741000  0.33395000  0.12233000
   0.83134000  0.50253000  0.18283000
   0.00132000  0.66795000  0.12253000
   0.16898000  0.83509000  0.18243000
   0.33446000  0.66703000  0.12223000
   0.49971000  0.83538000  0.18278000
   0.66698000  0.66840000  0.12259000
   0.83488000  0.83403000  0.18294000
   0.33558000  0.99863000  0.24353000
   0.66801000  0.33262000  0.24229000
   0.00448000  0.66739000  0.24217000
   0.49667773  0.83471559  0.30353393
   0.66521000  0.67351000  0.24327000
   0.66620000  0.99680000  0.00000000
   0.66996729  0.98511717  0.36032793
   0.33213000  0.33386000  0.00135000
   0.32970469  0.33990080  0.35860300
   0.67040000  0.33673000  0.00321000
   0.67155104  0.34371761  0.36284481
   0.66728000  0.99998000  0.12246000
   0.99806000  0.33495000  0.12235000
   0.33675000  0.33238000  0.12261000
   0.49717798  0.15799965  0.43566658
Direct configuration=     5
   0.00086000  0.99993000  0.24271000
   0.16416873  0.16682826  0.30235590
   0.50037773  0.16154822  0.30129267
   0.66822000  0.00107000  0.24272000
   0.83591002  0.16737687  0.30174391
   0.00044000  0.33497000  0.24240000
   0.16910130  0.50467096  0.30396189
   0.33469000  0.33305000  0.24267000
   0.49754599  0.50658119  0.30267759
   0.83484150  0.50140326  0.30095037
   0.16849325  0.83019248  0.30383172
   0.33342000  0.66555000  0.24261000
   0.83666138  0.83190929  0.30165385
   0.00064000  0.00119000  0.00199000
   0.00138360  0.00160279  0.36050339
   0.16843000  0.16962000  0.06269000
   0.33460000  0.00297000  0.00254000
   0.32438348  0.00138154  0.35947372
   0.50463000  0.16850000  0.06120000
   0.83272000  0.16670000  0.06193000
   0.00004000  0.33467000  0.00213000
   0.00346971  0.33468763  0.35989883
   0.16757000  0.49895000  0.06268000
   0.50099000  0.49896000  0.06206000
   0.83393000  0.50234000  0.06235000
   0.00121000  0.66785000  0.00188000
   0.99387477  0.66440479  0.36060876
   0.16792000  0.83462000  0.06228000
   0.33437000  0.66664000  0.00225000
   0.50152000  0.83563000  0.06217000
   0.66753000  0.66705000  0.00175000
   0.66794894  0.66582820  0.35889149
   0.83293000  0.83584000  0.06235000
   0.00121000  0.00098000  0.12225000
   0.16700000  0.16811000  0.18239000
   0.33470000  0.00227000  0.12192000
   0.50174000  0.16716000  0.18263000
   0.83421000  0.16639000  0.18283000
   0.16964000  0.49868000  0.18209000
   0.50219000  0.50081000  0.18317000
   0.66741000  0.33395000  0.12233000
   0.83134000  0.50253000  0.18283000
   0.00132000  0.66795000  0.12253000
   0.16898000  0.83509000  0.18243000
   0.33446000  0.66703000  0.12223000
   0.49971000  0.83538000  0.18278000
   0.66698000  0.66840000  0.12259000
   0.83488000  0.83403000  0.18294000
   0.33558000  0.99863000  0.24353000
   0.66801000  0.33262000  0.24229000
   0.00448000  0.66739000  0.24217000
   0.49650442  0.83450239  0.30367851
   0.66521000  0.67351000  0.24327000
   0.66620000  0.99680000  0.00000000
   0.66880966  0.98658331  0.36028187
   0.33213000  0.33386000  0.00135000
   0.33000896  0.34028948  0.35869654
   0.67040000  0.33673000  0.00321000
   0.67043955  0.34131951  0.36293839
   0.66728000  0.99998000  0.12246000
   0.99806000  0.33495000  0.12235000
   0.33675000  0.33238000  0.12261000
   0.49779018  0.15741297  0.43709615
Direct configuration=     6
   0.00086000  0.99993000  0.24271000
   0.16325366  0.16690712  0.30191291
   0.50070295  0.16189169  0.30277591
   0.66822000  0.00107000  0.24272000
   0.83661676  0.16747253  0.30147289
   0.00044000  0.33497000  0.24240000
   0.16777417  0.50610927  0.30359103
   0.33469000  0.33305000  0.24267000
   0.49744092  0.50662599  0.30268096
   0.83667277  0.50330944  0.30018951
   0.16696720  0.82879218  0.30318504
   0.33342000  0.66555000  0.24261000
   0.83784411  0.83038226  0.30106195
   0.00064000  0.00119000  0.00199000
   0.00137355  0.00206096  0.36075646
   0.16843000  0.16962000  0.06269000
   0.33460000  0.00297000  0.00254000
   0.32613506  0.00117781  0.35998567
   0.50463000  0.16850000  0.06120000
   0.83272000  0.16670000  0.06193000
   0.00004000  0.33467000  0.00213000
   0.00363622  0.33464786  0.35990999
   0.16757000  0.49895000  0.06268000
   0.50099000  0.49896000  0.06206000
   0.83393000  0.50234000  0.06235000
   0.00121000  0.66785000  0.00188000
   0.99392308  0.66419819  0.36066370
   0.16792000  0.83462000  0.06228000
   0.33437000  0.66664000  0.00225000
   0.50152000  0.83563000  0.06217000
   0.66753000  0.66705000  0.00175000
   0.66794358  0.66597336  0.35882361
   0.83293000  0.83584000  0.06235000
   0.00121000  0.00098000  0.12225000
   0.16700000  0.16811000  0.18239000
   0.33470000  0.00227000  0.12192000
   0.50174000  0.16716000  0.18263000
   0.83421000  0.16639000  0.18283000
   0.16964000  0.49868000  0.18209000
   0.50219000  0.50081000  0.18317000
   0.66741000  0.33395000  0.12233000
   0.83134000  0.50253000  0.18283000
   0.00132000  0.66795000  0.12253000
   0.16898000  0.83509000  0.18243000
   0.33446000  0.66703000  0.12223000
   0.49971000  0.83538000  0.18278000
   0.66698000  0.66840000  0.12259000
   0.83488000  0.83403000  0.18294000
   0.33558000  0.99863000  0.24353000
   0.66801000  0.33262000  0.24229000
   0.00448000  0.66739000  0.24217000
   0.49630421  0.83425609  0.30384553
   0.66521000  0.67351000  0.24327000
   0.66620000  0.99680000  0.00000000
   0.66747236  0.98827701  0.36022866
   0.33213000  0.33386000  0.00135000
   0.33036046  0.34073848  0.35880459
   0.67040000  0.33673000  0.00321000
   0.66915554  0.33854920  0.36304649
   0.66728000  0.99998000  0.12246000
   0.99806000  0.33495000  0.12235000
   0.33675000  0.33238000  0.12261000
   0.49849740  0.15673525  0.43874761
Direct configuration=     7
   0.00086000  0.99993000  0.24271000
   0.16316437  0.16691481  0.30186968
   0.50073469  0.16192520  0.30292064
   0.66822000  0.00107000  0.24272000
   0.83668573  0.16748187  0.30144644
   0.00044000  0.33497000  0.24240000
   0.16764467  0.50624962  0.30355485
   0.33469000  0.33305000  0.24267000
   0.49743067  0.50663036  0.30268128
   0.83685145  0.50349544  0.30011527
   0.16681830  0.82865554  0.30312194
   0.33342000  0.66555000  0.24261000
   0.83795952  0.83023326  0.30100419
   0.00064000  0.00119000  0.00199000
   0.00137257  0.00210567  0.36078115
   0.16843000  0.16962000  0.06269000
   0.33460000  0.00297000  0.00254000
   0.32630597  0.00115793  0.36003563
   0.50463000  0.16850000  0.06120000
   0.83272000  0.16670000  0.06193000
   0.00004000  0.33467000  0.00213000
   0.00365247  0.33464398  0.35991107
   0.16757000  0.49895000  0.06268000
   0.50099000  0.49896000  0.06206000
   0.83393000  0.50234000  0.06235000
   0.00121000  0.66785000  0.00188000
   0.99392779  0.66417803  0.36066906
   0.16792000  0.83462000  0.06228000
   0.33437000  0.66664000  0.00225000
   0.50152000  0.83563000  0.06217000
   0.66753000  0.66705000  0.00175000
   0.66794306  0.66598752  0.35881699
   0.83293000  0.83584000  0.06235000
   0.00121000  0.00098000  0.12225000
   0.16700000  0.16811000  0.18239000
   0.33470000  0.00227000  0.12192000
   0.50174000  0.16716000  0.18263000
   0.83421000  0.16639000  0.18283000
   0.16964000  0.49868000  0.18209000
   0.50219000  0.50081000  0.18317000
   0.66741000  0.33395000  0.12233000
   0.83134000  0.50253000  0.18283000
   0.00132000  0.66795000  0.12253000
   0.16898000  0.83509000  0.18243000
   0.33446000  0.66703000  0.12223000
   0.49971000  0.83538000  0.18278000
   0.66698000  0.66840000  0.12259000
   0.83488000  0.83403000  0.18294000
   0.33558000  0.99863000  0.24353000
   0.66801000  0.33262000  0.24229000
   0.00448000  0.66739000  0.24217000
   0.49628468  0.83423206  0.30386182
   0.66521000  0.67351000  0.24327000
   0.66620000  0.99680000  0.00000000
   0.66734187  0.98844228  0.36022347
   0.33213000  0.33386000  0.00135000
   0.33039476  0.34078229  0.35881513
   0.67040000  0.33673000  0.00321000
   0.66903026  0.33827889  0.36305704
   0.66728000  0.99998000  0.12246000
   0.99806000  0.33495000  0.12235000
   0.33675000  0.33238000  0.12261000
   0.49856641  0.15666912  0.43890875
Direct configuration=     8
   0.00086000  0.99993000  0.24271000
   0.16383935  0.16645898  0.30209066
   0.50009761  0.16141431  0.30305230
   0.66822000  0.00107000  0.24272000
   0.83672688  0.16738356  0.30135470
   0.00044000  0.33497000  0.24240000
   0.16756550  0.50625480  0.30335743
   0.33469000  0.33305000  0.24267000
   0.49773744  0.50664451  0.30267747
   0.83639683  0.50319178  0.30025150
   0.16681448  0.82934723  0.30318097
   0.33342000  0.66555000  0.24261000
   0.83750272  0.83081780  0.30103692
   0.00064000  0.00119000  0.00199000
   0.00145428  0.00237329  0.36070202
   0.16843000  0.16962000  0.06269000
   0.33460000  0.00297000  0.00254000
   0.32641724  0.00089671  0.36025102
   0.50463000  0.16850000  0.06120000
   0.83272000  0.16670000  0.06193000
   0.00004000  0.33467000  0.00213000
   0.00388087  0.33464111  0.35975835
   0.16757000  0.49895000  0.06268000
   0.50099000  0.49896000  0.06206000
   0.83393000  0.50234000  0.06235000
   0.00121000  0.66785000  0.00188000
   0.99417195  0.66421931  0.36088182
   0.16792000  0.83462000  0.06228000
   0.33437000  0.66664000  0.00225000
   0.50152000  0.83563000  0.06217000
   0.66753000  0.66705000  0.00175000
   0.66813652  0.66592644  0.35866804
   0.83293000  0.83584000  0.06235000
   0.00121000  0.00098000  0.12225000
   0.16700000  0.16811000  0.18239000
   0.33470000  0.00227000  0.12192000
   0.50174000  0.16716000  0.18263000
   0.83421000  0.16639000  0.18283000
   0.16964000  0.49868000  0.18209000
   0.50219000  0.50081000  0.18317000
   0.66741000  0.33395000  0.12233000
   0.83134000  0.50253000  0.18283000
   0.00132000  0.66795000  0.12253000
   0.16898000  0.83509000  0.18243000
   0.33446000  0.66703000  0.12223000
   0.49971000  0.83538000  0.18278000
   0.66698000  0.66840000  0.12259000
   0.83488000  0.83403000  0.18294000
   0.33558000  0.99863000  0.24353000
   0.66801000  0.33262000  0.24229000
   0.00448000  0.66739000  0.24217000
   0.49597233  0.83434108  0.30386287
   0.66521000  0.67351000  0.24327000
   0.66620000  0.99680000  0.00000000
   0.66718235  0.98948879  0.36033267
   0.33213000  0.33386000  0.00135000
   0.33067189  0.34056931  0.35916042
   0.67040000  0.33673000  0.00321000
   0.66917650  0.33730497  0.36320175
   0.66728000  0.99998000  0.12246000
   0.99806000  0.33495000  0.12235000
   0.33675000  0.33238000  0.12261000
   0.49873459  0.15611284  0.44006523
Direct configuration=     9
   0.00086000  0.99993000  0.24271000
   0.16571751  0.16519061  0.30270553
   0.49832488  0.15999272  0.30341864
   0.66822000  0.00107000  0.24272000
   0.83684141  0.16711002  0.30109943
   0.00044000  0.33497000  0.24240000
   0.16734522  0.50626925  0.30280808
   0.33469000  0.33305000  0.24267000
   0.49859104  0.50668388  0.30266686
   0.83513180  0.50234682  0.30063058
   0.16680385  0.83127191  0.30334522
   0.33342000  0.66555000  0.24261000
   0.83623165  0.83244434  0.30112798
   0.00064000  0.00119000  0.00199000
   0.00168164  0.00311798  0.36048181
   0.16843000  0.16962000  0.06269000
   0.33460000  0.00297000  0.00254000
   0.32672687  0.00016986  0.36085038
   0.50463000  0.16850000  0.06120000
   0.83272000  0.16670000  0.06193000
   0.00004000  0.33467000  0.00213000
   0.00451641  0.33463312  0.35933339
   0.16757000  0.49895000  0.06268000
   0.50099000  0.49896000  0.06206000
   0.83393000  0.50234000  0.06235000
   0.00121000  0.66785000  0.00188000
   0.99485133  0.66433416  0.36147386
   0.16792000  0.83462000  0.06228000
   0.33437000  0.66664000  0.00225000
   0.50152000  0.83563000  0.06217000
   0.66753000  0.66705000  0.00175000
   0.66867485  0.66575646  0.35825358
   0.83293000  0.83584000  0.06235000
   0.00121000  0.00098000  0.12225000
   0.16700000  0.16811000  0.18239000
   0.33470000  0.00227000  0.12192000
   0.50174000  0.16716000  0.18263000
   0.83421000  0.16639000  0.18283000
   0.16964000  0.49868000  0.18209000
   0.50219000  0.50081000  0.18317000
   0.66741000  0.33395000  0.12233000
   0.83134000  0.50253000  0.18283000
   0.00132000  0.66795000  0.12253000
   0.16898000  0.83509000  0.18243000
   0.33446000  0.66703000  0.12223000
   0.49971000  0.83538000  0.18278000
   0.66698000  0.66840000  0.12259000
   0.83488000  0.83403000  0.18294000
   0.33558000  0.99863000  0.24353000
   0.66801000  0.33262000  0.24229000
   0.00448000  0.66739000  0.24217000
   0.49510319  0.83464445  0.30386576
   0.66521000  0.67351000  0.24327000
   0.66620000  0.99680000  0.00000000
   0.66673846  0.99240079  0.36063652
   0.33213000  0.33386000  0.00135000
   0.33144303  0.33997669  0.36012120
   0.67040000  0.33673000  0.00321000
   0.66958342  0.33459498  0.36360443
   0.66728000  0.99998000  0.12246000
   0.99806000  0.33495000  0.12235000
   0.33675000  0.33238000  0.12261000
   0.49920258  0.15456496  0.44328322
Direct configuration=    10
   0.00086000  0.99993000  0.24271000
   0.16624262  0.16548735  0.30269146
   0.49813585  0.16007832  0.30306296
   0.66822000  0.00107000  0.24272000
   0.83657702  0.16729640  0.30106999
   0.00044000  0.33497000  0.24240000
   0.16753714  0.50592953  0.30290729
   0.33469000  0.33305000  0.24267000
   0.49861897  0.50572292  0.30265507
   0.83496211  0.50199563  0.30095565
   0.16688066  0.83117084  0.30355222
   0.33342000  0.66555000  0.24261000
   0.83618036  0.83244554  0.30151186
   0.00064000  0.00119000  0.00199000
   0.00139662  0.00337239  0.36055465
   0.16843000  0.16962000  0.06269000
   0.33460000  0.00297000  0.00254000
   0.32760738  0.00009322  0.36184633
   0.50463000  0.16850000  0.06120000
   0.83272000  0.16670000  0.06193000
   0.00004000  0.33467000  0.00213000
   0.00492349  0.33495637  0.35918534
   0.16757000  0.49895000  0.06268000
   0.50099000  0.49896000  0.06206000
   0.83393000  0.50234000  0.06235000
   0.00121000  0.66785000  0.00188000
   0.99494192  0.66457715  0.36119320
   0.16792000  0.83462000  0.06228000
   0.33437000  0.66664000  0.00225000
   0.50152000  0.83563000  0.06217000
   0.66753000  0.66705000  0.00175000
   0.66901285  0.66620636  0.35825597
   0.83293000  0.83584000  0.06235000
   0.00121000  0.00098000  0.12225000
   0.16700000  0.16811000  0.18239000
   0.33470000  0.00227000  0.12192000
   0.50174000  0.16716000  0.18263000
   0.83421000  0.16639000  0.18283000
   0.16964000  0.49868000  0.18209000
   0.50219000  0.50081000  0.18317000
   0.66741000  0.33395000  0.12233000
   0.83134000  0.50253000  0.18283000
   0.00132000  0.66795000  0.12253000
   0.16898000  0.83509000  0.18243000
   0.33446000  0.66703000  0.12223000
   0.49971000  0.83538000  0.18278000
   0.66698000  0.66840000  0.12259000
   0.83488000  0.83403000  0.18294000
   0.33558000  0.99863000  0.24353000
   0.66801000  0.33262000  0.24229000
   0.00448000  0.66739000  0.24217000
   0.49481937  0.83486529  0.30387258
   0.66521000  0.67351000  0.24327000
   0.66620000  0.99680000  0.00000000
   0.66620098  0.99383113  0.36111440
   0.33213000  0.33386000  0.00135000
   0.33250527  0.33939861  0.36096288
   0.67040000  0.33673000  0.00321000
   0.66875221  0.33268838  0.36419057
   0.66728000  0.99998000  0.12246000
   0.99806000  0.33495000  0.12235000
   0.33675000  0.33238000  0.12261000
   0.49931955  0.15347418  0.44441929
Direct configuration=    11
   0.00086000  0.99993000  0.24271000
   0.16657550  0.16567546  0.30268254
   0.49801602  0.16013259  0.30283748
   0.66822000  0.00107000  0.24272000
   0.83640942  0.16741456  0.30105133
   0.00044000  0.33497000  0.24240000
   0.16765880  0.50571417  0.30297018
   0.33469000  0.33305000  0.24267000
   0.49863667  0.50511375  0.30264759
   0.83485454  0.50177300  0.30116172
   0.16692935  0.83110677  0.30368345
   0.33342000  0.66555000  0.24261000
   0.83614785  0.83244630  0.30175520
   0.00064000  0.00119000  0.00199000
   0.00121593  0.00353367  0.36060083
   0.16843000  0.16962000  0.06269000
   0.33460000  0.00297000  0.00254000
   0.32816556  0.00004464  0.36247770
   0.50463000  0.16850000  0.06120000
   0.83272000  0.16670000  0.06193000
   0.00004000  0.33467000  0.00213000
   0.00518154  0.33516129  0.35909149
   0.16757000  0.49895000  0.06268000
   0.50099000  0.49896000  0.06206000
   0.83393000  0.50234000  0.06235000
   0.00121000  0.66785000  0.00188000
   0.99499935  0.66473118  0.36101528
   0.16792000  0.83462000  0.06228000
   0.33437000  0.66664000  0.00225000
   0.50152000  0.83563000  0.06217000
   0.66753000  0.66705000  0.00175000
   0.66922712  0.66649156  0.35825748
   0.83293000  0.83584000  0.06235000
   0.00121000  0.00098000  0.12225000
   0.16700000  0.16811000  0.18239000
   0.33470000  0.00227000  0.12192000
   0.50174000  0.16716000  0.18263000
   0.83421000  0.16639000  0.18283000
   0.16964000  0.49868000  0.18209000
   0.50219000  0.50081000  0.18317000
   0.66741000  0.33395000  0.12233000
   0.83134000  0.50253000  0.18283000
   0.00132000  0.66795000  0.12253000
   0.16898000  0.83509000  0.18243000
   0.33446000  0.66703000  0.12223000
   0.49971000  0.83538000  0.18278000
   0.66698000  0.66840000  0.12259000
   0.83488000  0.83403000  0.18294000
   0.33558000  0.99863000  0.24353000
   0.66801000  0.33262000  0.24229000
   0.00448000  0.66739000  0.24217000
   0.49463945  0.83500529  0.30387690
   0.66521000  0.67351000  0.24327000
   0.66620000  0.99680000  0.00000000
   0.66586026  0.99473787  0.36141734
   0.33213000  0.33386000  0.00135000
   0.33317866  0.33903215  0.36149645
   0.67040000  0.33673000  0.00321000
   0.66822528  0.33147974  0.36456215
   0.66728000  0.99998000  0.12246000
   0.99806000  0.33495000  0.12235000
   0.33675000  0.33238000  0.12261000
   0.49939370  0.15278271  0.44513948
Direct configuration=    12
   0.00086000  0.99993000  0.24271000
   0.16665077  0.16571800  0.30268052
   0.49798892  0.16014486  0.30278650
   0.66822000  0.00107000  0.24272000
   0.83637153  0.16744127  0.30104711
   0.00044000  0.33497000  0.24240000
   0.16768631  0.50566547  0.30298441
   0.33469000  0.33305000  0.24267000
   0.49864068  0.50497601  0.30264590
   0.83483021  0.50172267  0.30120831
   0.16694036  0.83109228  0.30371312
   0.33342000  0.66555000  0.24261000
   0.83614049  0.83244648  0.30181022
   0.00064000  0.00119000  0.00199000
   0.00117508  0.00357013  0.36061127
   0.16843000  0.16962000  0.06269000
   0.33460000  0.00297000  0.00254000
   0.32829176  0.00003365  0.36262045
   0.50463000  0.16850000  0.06120000
   0.83272000  0.16670000  0.06193000
   0.00004000  0.33467000  0.00213000
   0.00523989  0.33520762  0.35907027
   0.16757000  0.49895000  0.06268000
   0.50099000  0.49896000  0.06206000
   0.83393000  0.50234000  0.06235000
   0.00121000  0.66785000  0.00188000
   0.99501234  0.66476601  0.36097505
   0.16792000  0.83462000  0.06228000
   0.33437000  0.66664000  0.00225000
   0.50152000  0.83563000  0.06217000
   0.66753000  0.66705000  0.00175000
   0.66927556  0.66655604  0.35825782
   0.83293000  0.83584000  0.06235000
   0.00121000  0.00098000  0.12225000
   0.16700000  0.16811000  0.18239000
   0.33470000  0.00227000  0.12192000
   0.50174000  0.16716000  0.18263000
   0.83421000  0.16639000  0.18283000
   0.16964000  0.49868000  0.18209000
   0.50219000  0.50081000  0.18317000
   0.66741000  0.33395000  0.12233000
   0.83134000  0.50253000  0.18283000
   0.00132000  0.66795000  0.12253000
   0.16898000  0.83509000  0.18243000
   0.33446000  0.66703000  0.12223000
   0.49971000  0.83538000  0.18278000
   0.66698000  0.66840000  0.12259000
   0.83488000  0.83403000  0.18294000
   0.33558000  0.99863000  0.24353000
   0.66801000  0.33262000  0.24229000
   0.00448000  0.66739000  0.24217000
   0.49459877  0.83503694  0.30387788
   0.66521000  0.67351000  0.24327000
   0.66620000  0.99680000  0.00000000
   0.66578322  0.99494289  0.36148584
   0.33213000  0.33386000  0.00135000
   0.33333092  0.33894929  0.36161709
   0.67040000  0.33673000  0.00321000
   0.66810614  0.33120646  0.36464616
   0.66728000  0.99998000  0.12246000
   0.99806000  0.33495000  0.12235000
   0.33675000  0.33238000  0.12261000
   0.49941046  0.15262637  0.44530232
Direct configuration=    13
   0.00086000  0.99993000  0.24271000
   0.16641206  0.16563070  0.30273917
   0.49832719  0.16040358  0.30267655
   0.66822000  0.00107000  0.24272000
   0.83623379  0.16749284  0.30123468
   0.00044000  0.33497000  0.24240000
   0.16850645  0.50529003  0.30323369
   0.33469000  0.33305000  0.24267000
   0.49858382  0.50460901  0.30272794
   0.83466309  0.50129054  0.30115138
   0.16767822  0.83113540  0.30384258
   0.33342000  0.66555000  0.24261000
   0.83633950  0.83262636  0.30174399
   0.00064000  0.00119000  0.00199000
   0.00116326  0.00376300  0.36069090
   0.16843000  0.16962000  0.06269000
   0.33460000  0.00297000  0.00254000
   0.32855130  0.00065153  0.36247991