   63   63    1    2
  0.2715385E+02  0.8532700E-09  0.8497000E-09  0.2359500E-08  0.1000000E-16
  1.000000000000000E-004
  CAR 
 Fe2O3                                   
    562     10    369
 
  0.0000000E+00  0.0000000E+00  0.0000000E+00  0.6250000E-01
      1        -42.837868      -43.429570   1.000000   1.000000
      2        -42.821110      -43.385502   1.000000   1.000000
      3        -42.803279      -43.367589   1.000000   1.000000
      4        -42.798766      -43.361717   1.000000   1.000000
      5        -42.772682      -43.355910   1.000000   1.000000
      6        -42.756710      -43.338502   1.000000   1.000000
      7        -42.737330      -43.314914   1.000000   1.000000
      8        -42.731143      -43.284986   1.000000   1.000000
      9        -42.723709      -43.252253   1.000000   1.000000
     10        -42.346728      -43.214836   1.000000   1.000000
     11        -42.282133      -43.207336   1.000000   1.000000
     12        -42.232042      -43.193698   1.000000   1.000000
     13        -41.992114      -43.185889   1.000000   1.000000
     14        -41.970833      -43.181350   1.000000   1.000000
     15        -41.908378      -43.167472   1.000000   1.000000
     16        -41.885461      -43.153480   1.000000   1.000000
     17        -41.875175      -43.122981   1.000000   1.000000
     18        -41.868323      -43.108101   1.000000   1.000000
     19        -41.845625      -43.074318   1.000000   1.000000
     20        -41.841188      -43.061988   1.000000   1.000000
     21        -41.840594      -43.036438   1.000000   1.000000
     22        -41.823864      -42.977254   1.000000   1.000000
     23        -41.820889      -42.896846   1.000000   1.000000
     24        -41.809155      -42.861109   1.000000   1.000000
     25        -41.794387      -42.785387   1.000000   1.000000
     26        -41.788070      -42.783643   1.000000   1.000000
     27        -41.786463      -42.705333   1.000000   1.000000
     28        -41.774137      -41.595159   1.000000   1.000000
     29        -41.761809      -41.511940   1.000000   1.000000
     30        -41.754968      -41.451768   1.000000   1.000000
     31        -41.673989      -40.490418   1.000000   1.000000
     32        -41.652866      -40.472151   1.000000   1.000000
     33        -41.640029      -40.172754   1.000000   1.000000
     34        -40.372279      -40.041061   1.000000   1.000000
     35        -40.303159      -39.958635   1.000000   1.000000
     36        -40.254125      -39.952808   1.000000   1.000000
     37        -40.252610      -39.827807   1.000000   1.000000
     38        -40.193065      -39.757648   1.000000   1.000000
     39        -40.128733      -39.663138   1.000000   1.000000
     40        -15.523568      -15.559053   1.000000   1.000000
     41        -15.521655      -15.554915   1.000000   1.000000
     42        -15.515987      -15.549616   1.000000   1.000000
     43        -15.480489      -15.517185   1.000000   1.000000
     44        -15.471658      -15.511902   1.000000   1.000000
     45         -7.665676       -7.726783   1.000000   1.000000
     46         -7.201856       -7.117162   1.000000   1.000000
     47         -6.182962       -6.038351   1.000000   1.000000
     48         -5.309854       -5.114457   1.000000   1.000000
     49         -5.247963       -5.093780   1.000000   1.000000
     50         -5.230994       -5.083751   1.000000   1.000000
     51         -5.213494       -5.049561   1.000000   1.000000
     52         -4.869340       -4.602278   1.000000   1.000000
     53         -4.656635       -4.336771   1.000000   1.000000
     54         -4.611506       -4.325301   1.000000   1.000000
     55         -4.593875       -4.284577   1.000000   1.000000
     56         -4.551630       -4.188150   1.000000   1.000000
     57         -4.155471       -3.719393   1.000000   1.000000
     58         -4.148880       -3.710266   1.000000   1.000000
     59         -4.126346       -3.673900   1.000000   1.000000
     60         -4.112211       -3.601009   1.000000   1.000000
     61         -4.088536       -3.546223   1.000000   1.000000
     62         -4.063872       -3.531991   1.000000   1.000000
     63         -4.054326       -3.449600   1.000000   1.000000
     64         -4.002089       -3.332231   1.000000   1.000000
     65         -3.847795       -3.250898   1.000000   1.000000
     66         -3.816344       -2.942510   1.000000   1.000000
     67         -3.706753       -2.917019   1.000000   1.000000
     68         -3.670981       -2.870469   1.000000   1.000000
     69         -3.646461       -2.850424   1.000000   1.000000
     70         -3.620988       -2.837385   1.000000   1.000000
     71         -3.578577       -2.806199   1.000000   1.000000
     72         -3.475648       -2.760081   1.000000   1.000000
     73         -3.436709       -2.682036   1.000000   1.000000
     74         -3.424902       -2.646326   1.000000   1.000000
     75         -3.407182       -2.581696   1.000000   1.000000
     76         -3.401750       -2.439510   1.000000   1.000000
     77         -3.386683       -2.396278   1.000000   1.000000
     78         -3.363523       -2.379136   1.000000   1.000000
     79         -3.354642       -2.366648   1.000000   1.000000
     80         -3.340876       -2.356704   1.000000   1.000000
     81         -3.320145       -2.321458   1.000000   1.000000
     82         -3.309950       -2.280719   1.000000   1.000000
     83         -3.296519       -2.273428   1.000000   1.000000
     84         -3.271433       -2.234692   1.000000   1.000000
     85         -3.252346       -2.219385   1.000000   1.000000
     86         -3.232406       -2.162789   1.000000   1.000000
     87         -3.224328       -2.142859   1.000000   1.000000
     88         -3.221069       -2.121585   1.000000   1.000000
     89         -3.211268       -2.098027   1.000000   1.000000
     90         -3.168039       -2.060408   1.000000   1.000000
     91         -3.145823       -2.037080   1.000000   1.000000
     92         -3.047476       -2.019054   1.000000   1.000000
     93         -3.005535       -1.964357   1.000000   1.000000
     94         -2.998710       -1.927104   1.000000   1.000000
     95         -2.978175       -1.898684   1.000000   1.000000
     96         -2.969957       -1.839018   1.000000   1.000000
     97         -2.941729       -1.832158   1.000000   1.000000
     98         -2.938697       -1.802750   1.000000   1.000000
     99         -2.922716       -1.786983   1.000000   1.000000
    100         -2.913192       -1.776866   1.000000   1.000000
    101         -2.885094       -1.698270   1.000000   1.000000
    102         -2.878292       -1.668713   1.000000   1.000000
    103         -2.864575       -1.653966   1.000000   1.000000
    104         -2.837176       -1.630603   1.000000   1.000000
    105         -2.824176       -1.620055   1.000000   1.000000
    106         -2.749154       -1.584829   1.000000   1.000000
    107         -2.741316       -1.555083   1.000000   1.000000
    108         -2.731136       -1.530008   1.000000   1.000000
    109         -2.697057       -1.510636   1.000000   1.000000
    110         -2.664482       -1.505309   1.000000   1.000000
    111         -2.637798       -1.475919   1.000000   1.000000
    112         -2.634070       -1.452064   1.000000   1.000000
    113         -2.620838       -1.422527   1.000000   1.000000
    114         -2.603169       -1.418115   1.000000   1.000000
    115         -2.594733       -1.394716   1.000000   1.000000
    116         -2.575289       -1.371709   1.000000   1.000000
    117         -2.563336       -1.358321   1.000000   1.000000
    118         -2.559739       -1.341395   1.000000   1.000000
    119         -2.553458       -1.326368   1.000000   1.000000
    120         -2.544453       -1.295516   1.000000   1.000000
    121         -2.526106       -1.275988   1.000000   1.000000
    122         -2.520079       -1.250645   1.000000   1.000000
    123         -2.511249       -1.239115   1.000000   1.000000
    124         -2.500356       -1.215765   1.000000   1.000000
    125         -2.492358       -1.203789   1.000000   1.000000
    126         -2.488464       -1.188774   1.000000   1.000000
    127         -2.478707       -1.186018   1.000000   1.000000
    128         -2.464083       -1.173478   1.000000   1.000000
    129         -2.451572       -1.137824   1.000000   1.000000
    130         -2.443491       -1.116932   1.000000   1.000000
    131         -2.430011       -1.104196   1.000000   1.000000
    132         -2.417938       -1.088733   1.000000   1.000000
    133         -2.411273       -1.058982   1.000000   1.000000
    134         -2.399239       -1.037923   1.000000   1.000000
    135         -2.392401       -1.026328   1.000000   1.000000
    136         -2.380578       -0.999216   1.000000   1.000000
    137         -2.359392       -0.983921   1.000000   1.000000
    138         -2.349877       -0.962631   1.000000   1.000000
    139         -2.341984       -0.948418   1.000000   1.000000
    140         -2.332251       -0.939502   1.000000   1.000000
    141         -2.309701       -0.926665   1.000000   1.000000
    142         -2.301495       -0.919383   1.000000   1.000000
    143         -2.286919       -0.902465   1.000000   1.000000
    144         -2.278886       -0.877310   1.000000   1.000000
    145         -2.263126       -0.874963   1.000000   1.000000
    146         -2.252294       -0.845308   1.000000   1.000000
    147         -2.242703       -0.830977   1.000000   1.000000
    148         -2.235722       -0.820278   1.000000   1.000000
    149         -2.220033       -0.802393   1.000000   1.000000
    150         -2.206657       -0.787167   1.000000   1.000000
    151         -2.180333       -0.769796   1.000000   1.000000
    152         -2.174092       -0.758379   1.000000   1.000000
    153         -2.151618       -0.725579   1.000000   1.000000
    154         -2.138270       -0.718068   1.000000   1.000000
    155         -2.125429       -0.679021   1.000000   1.000000
    156         -2.109390       -0.671184   1.000000   1.000000
    157         -2.104684       -0.643828   1.000000   1.000000
    158         -2.083853       -0.624282   1.000000   1.000000
    159         -2.077220       -0.603002   1.000000   1.000000
    160         -2.059752       -0.592000   1.000000   1.000000
    161         -2.051831       -0.585527   1.000000   1.000000
    162         -2.043925       -0.568076   1.000000   1.000000
    163         -2.027169       -0.552843   1.000000   1.000000
    164         -1.997455       -0.537615   1.000000   1.000000
    165         -1.969653       -0.519902   1.000000   1.000000
    166         -1.963857       -0.511704   1.000000   1.000000
    167         -1.953003       -0.491874   1.000000   1.000000
    168         -1.933375       -0.468096   1.000000   1.000000
    169         -1.924498       -0.452739   1.000000   1.000000
    170         -1.916669       -0.439488   1.000000   1.000000
    171         -1.903828       -0.415047   1.000000   1.000000
    172         -1.887846       -0.392565   1.000000   1.000000
    173         -1.883204       -0.372011   1.000000   1.000000
    174         -1.859079       -0.350145   1.000000   1.000000
    175         -1.842739       -0.338997   1.000000   1.000000
    176         -1.824210       -0.309250   1.000000   1.000000
    177         -1.815983       -0.302170   1.000000   1.000000
    178         -1.804356       -0.285441   1.000000   1.000000
    179         -1.788386       -0.266013   1.000000   1.000000
    180         -1.780467       -0.247295   1.000000   1.000000
    181         -1.739155       -0.230549   1.000000   1.000000
    182         -1.735538       -0.212736   1.000000   1.000000
    183         -1.711750       -0.209000   1.000000   1.000000
    184         -1.702149       -0.194116   1.000000   1.000000
    185         -1.677797       -0.186793   1.000000   1.000000
    186         -1.661928       -0.167421   1.000000   1.000000
    187         -1.639929       -0.162150   1.000000   1.000000
    188         -1.638351       -0.109083   1.000000   1.000000
    189         -1.614030       -0.092810   1.000000   1.000000
    190         -1.610044       -0.084707   1.000000   1.000000
    191         -1.593292       -0.057954   1.000000   1.000000
    192         -1.574244       -0.024688   1.000000   1.000000
    193         -1.543747        0.004886   1.000000   1.000000
    194         -1.525210        0.022951   1.000000   1.000000
    195         -1.487372        0.081329   1.000000   1.000000
    196         -1.481918        0.116626   1.000000   1.000000
    197         -1.466077        0.130445   1.000000   1.000000
    198         -1.453524        0.161745   1.000000   1.000000
    199         -1.443949        0.166968   1.000000   1.000000
    200         -1.412693        0.171017   1.000000   1.000000
    201         -1.387361        0.213384   1.000000   1.000000
    202         -1.381355        0.227075   1.000000   1.000000
    203         -1.370720        0.261583   1.000000   1.000000
    204         -1.368415        0.281491   1.000000   1.000000
    205         -1.346441        0.286733   1.000000   1.000000
    206         -1.318761        0.304691   1.000000   1.000000
    207         -1.314351        0.315282   1.000000   1.000000
    208         -1.286576        0.354522   1.000000   1.000000
    209         -1.266042        0.369424   1.000000   1.000000
    210         -1.260823        0.371919   1.000000   1.000000
    211         -1.226535        0.385940   1.000000   1.000000
    212         -1.213987        0.425821   1.000000   1.000000
    213         -1.188254        0.452134   1.000000   1.000000
    214         -1.153535        0.518002   1.000000   1.000000
    215         -1.140585        0.553647   1.000000   1.000000
    216         -1.128947        0.559130   1.000000   1.000000
    217         -1.098442        0.576484   1.000000   1.000001
    218         -1.084764        0.596384   1.000000   1.000004
    219         -1.069898        0.619943   1.000000   1.000017
    220         -1.051573        0.629313   1.000000   1.000031
    221         -1.049277        0.646878   1.000000   1.000085
    222         -1.040492        0.686449   1.000000   1.000664
    223         -1.021227        0.704341   1.000000   1.001495
    224         -1.008848        0.738852   1.000000   1.005776
    225         -0.988694        0.782810   1.000000   1.020447
    226         -0.964690        0.798896   1.000000   1.027814
    227         -0.951525        0.829702   1.000000   1.035243
    228         -0.927476        0.859141   1.000000   1.010326
    229         -0.921419        0.879505   1.000000   0.956426
    230         -0.899293        0.949965   1.000000   0.487865
    231         -0.867370        1.029555   1.000000   0.007376
    232         -0.861967        1.044570   1.000000  -0.020513
    233         -0.845468        1.069793   1.000000  -0.035435
    234         -0.828286        1.078903   1.000000  -0.034596
    235         -0.805659        1.092829   1.000000  -0.030101
    236         -0.784075        1.109508   1.000000  -0.022614
    237         -0.778939        1.118005   1.000000  -0.018777
    238         -0.765915        1.158271   1.000000  -0.005763
    239         -0.743650        1.180080   1.000000  -0.002537
    240         -0.736587        1.193984   1.000000  -0.001415
    241         -0.721423        1.197400   1.000000  -0.001218
    242         -0.714805        1.207289   1.000000  -0.000776
    243         -0.682083        1.230148   1.000000  -0.000252
    244         -0.678658        1.239348   1.000000  -0.000155
    245         -0.654172        1.248288   1.000000  -0.000095
    246         -0.639798        1.263387   1.000000  -0.000040
    247         -0.627955        1.274062   1.000000  -0.000021
    248         -0.614365        1.281240   1.000000  -0.000013
    249         -0.599844        1.301044   1.000000  -0.000004
    250         -0.578378        1.331070   1.000000  -0.000000
    251         -0.562420        1.354410   1.000000  -0.000000
    252         -0.556616        1.356250   1.000000  -0.000000
    253         -0.545183        1.377097   1.000000  -0.000000
    254         -0.525893        1.398188   1.000000  -0.000000
    255         -0.508061        1.415649   1.000000  -0.000000
    256         -0.499919        1.443813   1.000000  -0.000000
    257         -0.497061        1.461505   1.000000  -0.000000
    258         -0.486883        1.465156   1.000000  -0.000000
    259         -0.476848        1.478903   1.000000  -0.000000
    260         -0.458854        1.494713   1.000000  -0.000000
    261         -0.441074        1.504557   1.000000  -0.000000
    262         -0.429481        1.522549   1.000000  -0.000000
    263         -0.420014        1.540753   1.000000  -0.000000
    264         -0.414454        1.558793   1.000000  -0.000000
    265         -0.407490        1.576178   1.000000  -0.000000
    266         -0.394017        1.580955   1.000000  -0.000000
    267         -0.383444        1.609199   1.000000  -0.000000
    268         -0.376673        1.622020   1.000000  -0.000000
    269         -0.372488        1.635557   1.000000  -0.000000
    270         -0.365233        1.649308   1.000000  -0.000000
    271         -0.356185        1.675313   1.000000  -0.000000
    272         -0.334753        1.686702   1.000000  -0.000000
    273         -0.333327        1.689094   1.000000  -0.000000
    274         -0.332396        1.697287   1.000000  -0.000000
    275         -0.309818        1.724849   1.000000  -0.000000
    276         -0.298551        1.738043   1.000000  -0.000000
    277         -0.286714        1.760527   1.000000  -0.000000
    278         -0.274076        1.764309   1.000000  -0.000000
    279         -0.261140        1.773792   1.000000  -0.000000
    280         -0.248255        1.799728   1.000000  -0.000000
    281         -0.241275        1.818516   1.000000  -0.000000
    282         -0.232563        1.838346   1.000000  -0.000000
    283         -0.225373        1.853319   1.000000  -0.000000
    284         -0.211787        1.863006   1.000000  -0.000000
    285         -0.206024        1.898759   1.000000  -0.000000
    286         -0.202955        1.910615   1.000000  -0.000000
    287         -0.186666        1.917165   1.000000  -0.000000
    288         -0.161209        1.943762   1.000000  -0.000000
    289         -0.152564        1.952860   1.000000  -0.000000
    290         -0.141952        1.979560   1.000000  -0.000000
    291         -0.132567        1.989534   1.000000  -0.000000
    292         -0.123272        2.000800   1.000000  -0.000000
    293         -0.103482        2.007373   1.000000  -0.000000
    294         -0.098255        2.021487   1.000000  -0.000000
    295         -0.095711        2.030044   1.000000  -0.000000
    296         -0.082170        2.039273   1.000000  -0.000000
    297         -0.064486        2.065212   1.000000  -0.000000
    298         -0.056186        2.076897   1.000000  -0.000000
    299         -0.029532        2.092196   1.000000  -0.000000
    300         -0.019362        2.112855   1.000000  -0.000000
    301         -0.000350        2.121389   1.000000  -0.000000
    302          0.005969        2.130527   1.000000  -0.000000
    303          0.064217        2.131272   1.000000  -0.000000
    304          0.085567        2.135866   1.000000  -0.000000
    305          0.121111        2.150954   1.000000  -0.000000
    306          0.130991        2.162375   1.000000  -0.000000
    307          0.153525        2.166978   1.000000  -0.000000
    308          0.159499        2.180417   1.000000  -0.000000
    309          0.175993        2.189710   1.000000  -0.000000
    310          0.211179        2.202043   1.000000  -0.000000
    311          0.234618        2.210645   1.000000  -0.000000
    312          0.257138        2.212319   1.000000  -0.000000
    313          0.283879        2.214560   1.000000  -0.000000
    314          0.286765        2.227613   1.000000  -0.000000
    315          0.314137        2.235436   1.000000  -0.000000
    316          0.332552        2.247481   1.000000  -0.000000
    317          0.356731        2.256557   1.000000  -0.000000
    318          0.404383        2.264282   1.000000  -0.000000
    319          0.480864        2.279155   1.000000  -0.000000
    320          0.497619        2.290390   1.000000  -0.000000
    321          0.512306        2.291000   1.000000  -0.000000
    322          0.541433        2.314616   1.000000  -0.000000
    323          0.555287        2.318260   1.000000  -0.000000
    324          0.574505        2.335034   1.000001  -0.000000
    325          0.592615        2.347100   1.000003  -0.000000
    326          0.627539        2.364282   1.000028  -0.000000
    327          0.649001        2.378667   1.000096  -0.000000
    328          0.665499        2.380491   1.000234  -0.000000
    329          0.674795        2.385272   1.000376  -0.000000
    330          0.693833        2.397379   1.000936  -0.000000
    331          0.725856        2.398122   1.003593  -0.000000
    332          0.744513        2.406491   1.007006  -0.000000
    333          0.790408        2.415298   1.023935  -0.000000
    334          0.809655        2.423757   1.032176  -0.000000
    335          0.875765        2.438635   0.969157  -0.000000
    336          0.919758        2.447319   0.732676  -0.000000
    337          0.983392        2.458588   0.223909  -0.000000
    338          1.012645        2.476027   0.062378  -0.000000
    339          1.105159        2.486687  -0.024627  -0.000000
    340          1.129107        2.498872  -0.014211  -0.000000
    341          1.195049        2.507996  -0.001351  -0.000000
    342          1.218348        2.514128  -0.000457  -0.000000
    343          1.261877        2.525599  -0.000043  -0.000000
    344          1.268516        2.544681  -0.000029  -0.000000
    345          1.312982        2.590827  -0.000002  -0.000000
    346          1.333871        2.594531  -0.000000  -0.000000
    347          1.356702        2.605417  -0.000000  -0.000000
    348          1.408381        2.616252  -0.000000  -0.000000
    349          1.421670        2.636320  -0.000000  -0.000000
    350          1.430304        2.660874  -0.000000  -0.000000
    351          1.462932        2.673335  -0.000000  -0.000000
    352          1.517924        2.689315  -0.000000  -0.000000
    353          1.529455        2.703700  -0.000000  -0.000000
    354          1.540659        2.735452  -0.000000  -0.000000
    355          1.550580        2.748721  -0.000000  -0.000000
    356          1.595266        2.755387  -0.000000  -0.000000
    357          1.601300        2.756430  -0.000000  -0.000000
    358          1.639557        2.788177  -0.000000  -0.000000
    359          1.666366        2.806945  -0.000000  -0.000000
    360          1.692999        2.834089  -0.000000  -0.000000
    361          1.720366        2.849689  -0.000000  -0.000000
    362          1.737673        2.890462  -0.000000  -0.000000
    363          1.784394        2.903555  -0.000000  -0.000000
    364          1.838829        2.961466  -0.000000  -0.000000
    365          1.859018        2.975859  -0.000000  -0.000000
    366          1.890013        2.986179  -0.000000  -0.000000
    367          1.913597        3.003599  -0.000000  -0.000000
    368          1.932159        3.017877  -0.000000  -0.000000
    369          1.960309        3.059898  -0.000000  -0.000000
 
  0.2500000E+00  0.6721729E-20  0.0000000E+00  0.1250000E+00
      1        -42.837863      -43.429576   1.000000   1.000000
      2        -42.821112      -43.385509   1.000000   1.000000
      3        -42.803284      -43.367592   1.000000   1.000000
      4        -42.798760      -43.361717   1.000000   1.000000
      5        -42.772687      -43.355914   1.000000   1.000000
      6        -42.756716      -43.338501   1.000000   1.000000
      7        -42.737338      -43.314915   1.000000   1.000000
      8        -42.731163      -43.284990   1.000000   1.000000
      9        -42.723715      -43.252260   1.000000   1.000000
     10        -42.346736      -43.214839   1.000000   1.000000
     11        -42.282130      -43.207338   1.000000   1.000000
     12        -42.232053      -43.193705   1.000000   1.000000
     13        -41.992116      -43.185886   1.000000   1.000000
     14        -41.970834      -43.181354   1.000000   1.000000
     15        -41.908380      -43.167464   1.000000   1.000000
     16        -41.885472      -43.153479   1.000000   1.000000
     17        -41.875175      -43.122980   1.000000   1.000000
     18        -41.868310      -43.108108   1.000000   1.000000
     19        -41.845615      -43.074354   1.000000   1.000000
     20        -41.841224      -43.061991   1.000000   1.000000
     21        -41.840567      -43.036438   1.000000   1.000000
     22        -41.823849      -42.977257   1.000000   1.000000
     23        -41.820914      -42.896853   1.000000   1.000000
     24        -41.809161      -42.861116   1.000000   1.000000
     25        -41.794391      -42.785387   1.000000   1.000000
     26        -41.788072      -42.783647   1.000000   1.000000
     27        -41.786470      -42.705341   1.000000   1.000000
     28        -41.774152      -41.595161   1.000000   1.000000
     29        -41.761815      -41.511942   1.000000   1.000000
     30        -41.754985      -41.451774   1.000000   1.000000
     31        -41.674001      -40.490417   1.000000   1.000000
     32        -41.652869      -40.472152   1.000000   1.000000
     33        -41.640034      -40.172760   1.000000   1.000000
     34        -40.372286      -40.041078   1.000000   1.000000
     35        -40.303160      -39.958632   1.000000   1.000000
     36        -40.254124      -39.952807   1.000000   1.000000
     37        -40.252616      -39.827818   1.000000   1.000000
     38        -40.193074      -39.757654   1.000000   1.000000
     39        -40.128740      -39.663143   1.000000   1.000000
     40        -15.523570      -15.559054   1.000000   1.000000
     41        -15.521655      -15.554917   1.000000   1.000000
     42        -15.515988      -15.549616   1.000000   1.000000
     43        -15.480489      -15.517186   1.000000   1.000000
     44        -15.471657      -15.511901   1.000000   1.000000
     45         -7.644645       -7.713272   1.000000   1.000000
     46         -7.077882       -6.986118   1.000000   1.000000
     47         -6.075099       -5.941320   1.000000   1.000000
     48         -6.050185       -5.912846   1.000000   1.000000
     49         -5.244093       -5.026212   1.000000   1.000000
     50         -5.145436       -4.975974   1.000000   1.000000
     51         -5.072582       -4.912196   1.000000   1.000000
     52         -4.785536       -4.516289   1.000000   1.000000
     53         -4.540814       -4.226522   1.000000   1.000000
     54         -4.501575       -4.198990   1.000000   1.000000
     55         -4.482954       -4.171411   1.000000   1.000000
     56         -4.404433       -4.143474   1.000000   1.000000
     57         -4.373773       -4.085377   1.000000   1.000000
     58         -4.255367       -3.835723   1.000000   1.000000
     59         -4.136307       -3.603002   1.000000   1.000000
     60         -4.039226       -3.439666   1.000000   1.000000
     61         -3.989489       -3.389862   1.000000   1.000000
     62         -3.966534       -3.327159   1.000000   1.000000
     63         -3.904037       -3.313622   1.000000   1.000000
     64         -3.865080       -3.277767   1.000000   1.000000
     65         -3.788135       -3.257746   1.000000   1.000000
     66         -3.760104       -3.144622   1.000000   1.000000
     67         -3.754847       -3.122305   1.000000   1.000000
     68         -3.725422       -2.917808   1.000000   1.000000
     69         -3.676257       -2.858808   1.000000   1.000000
     70         -3.605410       -2.819309   1.000000   1.000000
     71         -3.577577       -2.786394   1.000000   1.000000
     72         -3.551336       -2.668344   1.000000   1.000000
     73         -3.544168       -2.643224   1.000000   1.000000
     74         -3.533769       -2.613177   1.000000   1.000000
     75         -3.477599       -2.598682   1.000000   1.000000
     76         -3.458165       -2.550628   1.000000   1.000000
     77         -3.440080       -2.508515   1.000000   1.000000
     78         -3.404723       -2.491088   1.000000   1.000000
     79         -3.351147       -2.443919   1.000000   1.000000
     80         -3.314401       -2.378425   1.000000   1.000000
     81         -3.285758       -2.336010   1.000000   1.000000
     82         -3.268084       -2.293266   1.000000   1.000000
     83         -3.257889       -2.285472   1.000000   1.000000
     84         -3.245871       -2.243892   1.000000   1.000000
     85         -3.233021       -2.179111   1.000000   1.000000
     86         -3.225906       -2.143909   1.000000   1.000000
     87         -3.206299       -2.119981   1.000000   1.000000
     88         -3.188453       -2.094253   1.000000   1.000000
     89         -3.169155       -2.061100   1.000000   1.000000
     90         -3.154211       -2.034688   1.000000   1.000000
     91         -3.140447       -2.005518   1.000000   1.000000
     92         -3.122311       -1.981709   1.000000   1.000000
     93         -3.111060       -1.955648   1.000000   1.000000
     94         -3.078130       -1.944914   1.000000   1.000000