       N       E                     dE             d eps       ncg     rms          rms(c)
DAV:   1    -0.503883611635E+03   -0.50388E+03   -0.27331E-01 19312   0.307E+00
DAV:   2    -0.503887000136E+03   -0.33885E-02   -0.33885E-02 19928   0.433E-01
DAV:   3    -0.503887198104E+03   -0.19797E-03   -0.19797E-03 23776   0.516E-02
DAV:   4    -0.503887202774E+03   -0.46696E-05   -0.46696E-05 20200   0.111E-02
DAV:   5    -0.503887203062E+03   -0.28845E-06   -0.28838E-06 12264   0.262E-03
   1 F= -.50388720E+03 E0= -.50388769E+03  d E =0.147494E-02  mag=   106.1537
