   63   63    1    2
  0.2715385E+02  0.8532700E-09  0.8497000E-09  0.2359500E-08  0.1000000E-16
  1.000000000000000E-004
  CAR 
 Fe2O3                                   
    562     10    369
 
  0.0000000E+00  0.0000000E+00  0.0000000E+00  0.6250000E-01
      1        -42.802249      -43.374888   1.000000   1.000000
      2        -42.787492      -43.318125   1.000000   1.000000
      3        -42.770032      -43.314992   1.000000   1.000000
      4        -42.761783      -43.310319   1.000000   1.000000
      5        -42.741914      -43.284129   1.000000   1.000000
      6        -42.720600      -43.258389   1.000000   1.000000
      7        -42.705639      -43.230024   1.000000   1.000000
      8        -42.697208      -43.215025   1.000000   1.000000
      9        -42.691071      -43.189600   1.000000   1.000000
     10        -42.317409      -43.189579   1.000000   1.000000
     11        -42.239183      -43.166768   1.000000   1.000000
     12        -42.191981      -43.157402   1.000000   1.000000
     13        -41.957567      -43.153461   1.000000   1.000000
     14        -41.931015      -43.142614   1.000000   1.000000
     15        -41.923474      -43.137968   1.000000   1.000000
     16        -41.906583      -43.129228   1.000000   1.000000
     17        -41.861126      -43.096695   1.000000   1.000000
     18        -41.835861      -43.046975   1.000000   1.000000
     19        -41.830150      -43.025788   1.000000   1.000000
     20        -41.827094      -42.983176   1.000000   1.000000
     21        -41.823425      -42.951826   1.000000   1.000000
     22        -41.804614      -42.947207   1.000000   1.000000
     23        -41.785211      -42.856627   1.000000   1.000000
     24        -41.783760      -42.851715   1.000000   1.000000
     25        -41.783680      -42.770475   1.000000   1.000000
     26        -41.767416      -42.746974   1.000000   1.000000
     27        -41.754535      -42.683534   1.000000   1.000000
     28        -41.746177      -41.583027   1.000000   1.000000
     29        -41.736529      -41.487661   1.000000   1.000000
     30        -41.721871      -41.433136   1.000000   1.000000
     31        -41.718806      -40.441768   1.000000   1.000000
     32        -41.707852      -40.425588   1.000000   1.000000
     33        -41.693541      -40.126163   1.000000   1.000000
     34        -40.344551      -39.994559   1.000000   1.000000
     35        -40.299739      -39.914438   1.000000   1.000000
     36        -40.211663      -39.905721   1.000000   1.000000
     37        -40.205105      -39.790679   1.000000   1.000000
     38        -40.192323      -39.719777   1.000000   1.000000
     39        -40.066611      -39.638398   1.000000   1.000000
     40        -15.529460      -15.542720   1.000000   1.000000
     41        -15.520325      -15.522790   1.000000   1.000000
     42        -15.518567      -15.520374   1.000000   1.000000
     43        -15.507202      -15.509926   1.000000   1.000000
     44        -15.485387      -15.495312   1.000000   1.000000
     45         -7.895486       -7.899495   1.000000   1.000000
     46         -7.142819       -7.040171   1.000000   1.000000
     47         -6.120385       -5.958247   1.000000   1.000000
     48         -5.289365       -5.090357   1.000000   1.000000
     49         -5.221443       -5.068855   1.000000   1.000000
     50         -5.215160       -5.054141   1.000000   1.000000
     51         -5.186951       -5.022022   1.000000   1.000000
     52         -4.879397       -4.571218   1.000000   1.000000
     53         -4.648900       -4.331078   1.000000   1.000000
     54         -4.606104       -4.320907   1.000000   1.000000
     55         -4.574494       -4.262828   1.000000   1.000000
     56         -4.483183       -4.117094   1.000000   1.000000
     57         -4.135110       -3.687416   1.000000   1.000000
     58         -4.132655       -3.681217   1.000000   1.000000
     59         -4.105604       -3.649593   1.000000   1.000000
     60         -4.097603       -3.583866   1.000000   1.000000
     61         -4.072183       -3.543589   1.000000   1.000000
     62         -4.049227       -3.524499   1.000000   1.000000
     63         -4.028560       -3.432342   1.000000   1.000000
     64         -3.959835       -3.323480   1.000000   1.000000
     65         -3.815950       -3.176312   1.000000   1.000000
     66         -3.793109       -2.923602   1.000000   1.000000
     67         -3.727052       -2.888559   1.000000   1.000000
     68         -3.659483       -2.855418   1.000000   1.000000
     69         -3.641817       -2.835953   1.000000   1.000000
     70         -3.591087       -2.814462   1.000000   1.000000
     71         -3.527256       -2.797173   1.000000   1.000000
     72         -3.457539       -2.763289   1.000000   1.000000
     73         -3.426955       -2.663929   1.000000   1.000000
     74         -3.411435       -2.640831   1.000000   1.000000
     75         -3.397315       -2.546452   1.000000   1.000000
     76         -3.390277       -2.407999   1.000000   1.000000
     77         -3.372766       -2.375936   1.000000   1.000000
     78         -3.354637       -2.360562   1.000000   1.000000
     79         -3.342761       -2.348882   1.000000   1.000000
     80         -3.323066       -2.327637   1.000000   1.000000
     81         -3.309509       -2.281242   1.000000   1.000000
     82         -3.294173       -2.243611   1.000000   1.000000
     83         -3.273513       -2.240344   1.000000   1.000000
     84         -3.259801       -2.196886   1.000000   1.000000
     85         -3.253324       -2.177149   1.000000   1.000000
     86         -3.212153       -2.122922   1.000000   1.000000
     87         -3.206738       -2.109274   1.000000   1.000000
     88         -3.199697       -2.100242   1.000000   1.000000
     89         -3.176807       -2.071533   1.000000   1.000000
     90         -3.137502       -2.046153   1.000000   1.000000
     91         -3.124958       -2.038407   1.000000   1.000000
     92         -3.109853       -1.985137   1.000000   1.000000
     93         -2.996291       -1.941289   1.000000   1.000000
     94         -2.972076       -1.896178   1.000000   1.000000
     95         -2.960861       -1.836856   1.000000   1.000000
     96         -2.945466       -1.818935   1.000000   1.000000
     97         -2.938221       -1.805282   1.000000   1.000000
     98         -2.923515       -1.778027   1.000000   1.000000
     99         -2.903701       -1.767537   1.000000   1.000000
    100         -2.890063       -1.733085   1.000000   1.000000
    101         -2.880335       -1.696059   1.000000   1.000000
    102         -2.859283       -1.660812   1.000000   1.000000
    103         -2.848500       -1.624007   1.000000   1.000000
    104         -2.843195       -1.599316   1.000000   1.000000
    105         -2.837348       -1.587432   1.000000   1.000000
    106         -2.764416       -1.546518   1.000000   1.000000
    107         -2.730820       -1.534940   1.000000   1.000000
    108         -2.716746       -1.520905   1.000000   1.000000
    109         -2.684943       -1.501295   1.000000   1.000000
    110         -2.646355       -1.482499   1.000000   1.000000
    111         -2.620479       -1.460613   1.000000   1.000000
    112         -2.610264       -1.444628   1.000000   1.000000
    113         -2.596240       -1.433617   1.000000   1.000000
    114         -2.573621       -1.412564   1.000000   1.000000
    115         -2.567144       -1.382913   1.000000   1.000000
    116         -2.560893       -1.364822   1.000000   1.000000
    117         -2.555114       -1.340106   1.000000   1.000000
    118         -2.547861       -1.328137   1.000000   1.000000
    119         -2.537525       -1.301820   1.000000   1.000000
    120         -2.524966       -1.266572   1.000000   1.000000
    121         -2.516091       -1.260707   1.000000   1.000000
    122         -2.513150       -1.228999   1.000000   1.000000
    123         -2.495385       -1.218581   1.000000   1.000000
    124         -2.487264       -1.198976   1.000000   1.000000
    125         -2.480691       -1.196231   1.000000   1.000000
    126         -2.469668       -1.171253   1.000000   1.000000
    127         -2.463000       -1.155993   1.000000   1.000000
    128         -2.457085       -1.137259   1.000000   1.000000
    129         -2.447374       -1.107203   1.000000   1.000000
    130         -2.425036       -1.091529   1.000000   1.000000
    131         -2.411516       -1.081927   1.000000   1.000000
    132         -2.394953       -1.071795   1.000000   1.000000
    133         -2.388696       -1.024310   1.000000   1.000000
    134         -2.380378       -1.005501   1.000000   1.000000
    135         -2.367171       -1.003769   1.000000   1.000000
    136         -2.357062       -0.984163   1.000000   1.000000
    137         -2.352319       -0.976570   1.000000   1.000000
    138         -2.328830       -0.959277   1.000000   1.000000
    139         -2.325741       -0.951216   1.000000   1.000000
    140         -2.302563       -0.913701   1.000000   1.000000
    141         -2.294153       -0.905240   1.000000   1.000000
    142         -2.286272       -0.898756   1.000000   1.000000
    143         -2.268368       -0.876472   1.000000   1.000000
    144         -2.238643       -0.855189   1.000000   1.000000
    145         -2.235319       -0.847081   1.000000   1.000000
    146         -2.233763       -0.838891   1.000000   1.000000
    147         -2.222064       -0.816113   1.000000   1.000000
    148         -2.202788       -0.794317   1.000000   1.000000
    149         -2.193214       -0.785029   1.000000   1.000000
    150         -2.191663       -0.769989   1.000000   1.000000
    151         -2.169294       -0.751689   1.000000   1.000000
    152         -2.147601       -0.736135   1.000000   1.000000
    153         -2.130282       -0.709049   1.000000   1.000000
    154         -2.123000       -0.699329   1.000000   1.000000
    155         -2.110143       -0.694937   1.000000   1.000000
    156         -2.093459       -0.678171   1.000000   1.000000
    157         -2.081379       -0.623485   1.000000   1.000000
    158         -2.065734       -0.617855   1.000000   1.000000
    159         -2.047636       -0.587800   1.000000   1.000000
    160         -2.039554       -0.566535   1.000000   1.000000
    161         -2.025211       -0.558928   1.000000   1.000000
    162         -2.022827       -0.543752   1.000000   1.000000
    163         -2.012004       -0.539654   1.000000   1.000000
    164         -1.985956       -0.508761   1.000000   1.000000
    165         -1.959123       -0.500035   1.000000   1.000000
    166         -1.949381       -0.477868   1.000000   1.000000
    167         -1.935179       -0.463653   1.000000   1.000000
    168         -1.916491       -0.441035   1.000000   1.000000
    169         -1.909778       -0.418369   1.000000   1.000000
    170         -1.896772       -0.410855   1.000000   1.000000
    171         -1.890264       -0.382269   1.000000   1.000000
    172         -1.877828       -0.373193   1.000000   1.000000
    173         -1.870113       -0.357752   1.000000   1.000000
    174         -1.842069       -0.337034   1.000000   1.000000
    175         -1.835926       -0.304488   1.000000   1.000000
    176         -1.818465       -0.289864   1.000000   1.000000
    177         -1.812765       -0.285100   1.000000   1.000000
    178         -1.808521       -0.261619   1.000000   1.000000
    179         -1.791608       -0.235453   1.000000   1.000000
    180         -1.783470       -0.227281   1.000000   1.000000
    181         -1.741772       -0.208113   1.000000   1.000000
    182         -1.712346       -0.197756   1.000000   1.000000
    183         -1.702953       -0.192186   1.000000   1.000000
    184         -1.695643       -0.182287   1.000000   1.000000
    185         -1.680570       -0.170430   1.000000   1.000000
    186         -1.662166       -0.147791   1.000000   1.000000
    187         -1.642266       -0.139054   1.000000   1.000000
    188         -1.611503       -0.115844   1.000000   1.000000
    189         -1.607971       -0.103136   1.000000   1.000000
    190         -1.599058       -0.061776   1.000000   1.000000
    191         -1.564448       -0.032166   1.000000   1.000000
    192         -1.545559       -0.007155   1.000000   1.000000
    193         -1.527966        0.009977   1.000000   1.000000
    194         -1.513983        0.032289   1.000000   1.000000
    195         -1.493046        0.078043   1.000000   1.000000
    196         -1.467696        0.135178   1.000000   1.000000
    197         -1.462634        0.157742   1.000000   1.000000
    198         -1.450645        0.177769   1.000000   1.000000
    199         -1.438471        0.206496   1.000000   1.000000
    200         -1.408518        0.236986   1.000000   1.000000
    201         -1.402509        0.261838   1.000000   1.000000
    202         -1.380703        0.271807   1.000000   1.000000
    203         -1.357930        0.305993   1.000000   1.000000
    204         -1.351507        0.311482   1.000000   1.000000
    205         -1.340727        0.318537   1.000000   1.000000
    206         -1.310120        0.337235   1.000000   1.000000
    207         -1.303370        0.355074   1.000000   1.000000
    208         -1.268244        0.367478   1.000000   1.000000
    209         -1.256774        0.384445   1.000000   1.000000
    210         -1.246084        0.407653   1.000000   1.000000
    211         -1.233616        0.416524   1.000000   1.000000
    212         -1.202411        0.441376   1.000000   1.000000
    213         -1.187629        0.487714   1.000000   1.000000
    214         -1.170038        0.542944   1.000000   1.000000
    215         -1.146816        0.568686   1.000000   1.000000
    216         -1.123010        0.608529   1.000000   1.000001
    217         -1.101778        0.639937   1.000000   1.000008
    218         -1.085676        0.650058   1.000000   1.000015
    219         -1.076221        0.674992   1.000000   1.000068
    220         -1.065825        0.677973   1.000000   1.000081
    221         -1.049780        0.716231   1.000000   1.000598
    222         -1.029554        0.740401   1.000000   1.001781
    223         -1.010779        0.768009   1.000000   1.005230
    224         -1.002744        0.794113   1.000000   1.012099
    225         -0.986801        0.835743   1.000000   1.029911
    226         -0.973643        0.852921   1.000000   1.035083
    227         -0.946924        0.875672   1.000000   1.029441
    228         -0.933604        0.897740   1.000000   0.996782
    229         -0.905778        0.993238   1.000000   0.393185
    230         -0.885726        1.038048   1.000000   0.091306
    231         -0.872329        1.048815   1.000000   0.046158
    232         -0.866467        1.087265   1.000000  -0.030796
    233         -0.829458        1.102388   1.000000  -0.035453
    234         -0.813125        1.121443   1.000000  -0.031423
    235         -0.786571        1.123510   1.000000  -0.030623
    236         -0.769913        1.137302   1.000000  -0.024548
    237         -0.753972        1.169054   1.000000  -0.011368
    238         -0.743997        1.199517   1.000000  -0.004125
    239         -0.732218        1.207040   1.000000  -0.003095
    240         -0.715140        1.213639   1.000000  -0.002379
    241         -0.699533        1.229431   1.000000  -0.001215
    242         -0.679631        1.243766   1.000000  -0.000627
    243         -0.653166        1.262707   1.000000  -0.000244
    244         -0.641589        1.263410   1.000000  -0.000235
    245         -0.624489        1.275457   1.000000  -0.000123
    246         -0.621754        1.284542   1.000000  -0.000074
    247         -0.608731        1.292547   1.000000  -0.000047
    248         -0.596713        1.319517   1.000000  -0.000009
    249         -0.584571        1.348896   1.000000  -0.000001
    250         -0.548123        1.377969   1.000000  -0.000000
    251         -0.546871        1.393125   1.000000  -0.000000
    252         -0.532275        1.403379   1.000000  -0.000000
    253         -0.516802        1.411676   1.000000  -0.000000
    254         -0.510193        1.438972   1.000000  -0.000000
    255         -0.494651        1.459552   1.000000  -0.000000
    256         -0.474552        1.477556   1.000000  -0.000000
    257         -0.468464        1.492264   1.000000  -0.000000
    258         -0.461031        1.502622   1.000000  -0.000000
    259         -0.452669        1.528182   1.000000  -0.000000
    260         -0.426858        1.534823   1.000000  -0.000000
    261         -0.418599        1.555047   1.000000  -0.000000
    262         -0.408446        1.564908   1.000000  -0.000000
    263         -0.405888        1.583671   1.000000  -0.000000
    264         -0.396294        1.611271   1.000000  -0.000000
    265         -0.380968        1.621868   1.000000  -0.000000
    266         -0.372482        1.646149   1.000000  -0.000000
    267         -0.364413        1.649396   1.000000  -0.000000
    268         -0.355727        1.658275   1.000000  -0.000000
    269         -0.347155        1.673335   1.000000  -0.000000
    270         -0.336874        1.692247   1.000000  -0.000000
    271         -0.331355        1.701790   1.000000  -0.000000
    272         -0.315046        1.723043   1.000000  -0.000000
    273         -0.310515        1.740124   1.000000  -0.000000
    274         -0.300624        1.754832   1.000000  -0.000000
    275         -0.279124        1.760198   1.000000  -0.000000
    276         -0.267324        1.787539   1.000000  -0.000000
    277         -0.261688        1.795815   1.000000  -0.000000
    278         -0.254171        1.804548   1.000000  -0.000000
    279         -0.242469        1.834221   1.000000  -0.000000
    280         -0.228029        1.853279   1.000000  -0.000000
    281         -0.220954        1.855661   1.000000  -0.000000
    282         -0.214946        1.864116   1.000000  -0.000000
    283         -0.206172        1.892195   1.000000  -0.000000
    284         -0.185777        1.921001   1.000000  -0.000000
    285         -0.182810        1.929602   1.000000  -0.000000
    286         -0.172280        1.958110   1.000000  -0.000000
    287         -0.154193        1.964561   1.000000  -0.000000
    288         -0.151442        1.989468   1.000000  -0.000000
    289         -0.132683        2.007300   1.000000  -0.000000
    290         -0.118408        2.013278   1.000000  -0.000000
    291         -0.111463        2.031324   1.000000  -0.000000
    292         -0.100296        2.041055   1.000000  -0.000000
    293         -0.088775        2.056666   1.000000  -0.000000
    294         -0.080698        2.061538   1.000000  -0.000000
    295         -0.077629        2.078657   1.000000  -0.000000
    296         -0.056928        2.102333   1.000000  -0.000000
    297         -0.049452        2.104973   1.000000  -0.000000
    298         -0.043609        2.111614   1.000000  -0.000000
    299         -0.003810        2.123433   1.000000  -0.000000
    300         -0.002247        2.137106   1.000000  -0.000000
    301          0.026913        2.144248   1.000000  -0.000000
    302          0.040270        2.153579   1.000000  -0.000000
    303          0.087772        2.162631   1.000000  -0.000000
    304          0.093416        2.178417   1.000000  -0.000000
    305          0.141056        2.181769   1.000000  -0.000000
    306          0.153325        2.187659   1.000000  -0.000000
    307          0.158091        2.194254   1.000000  -0.000000
    308          0.177628        2.203576   1.000000  -0.000000
    309          0.185220        2.215842   1.000000  -0.000000
    310          0.220842        2.230394   1.000000  -0.000000
    311          0.248060        2.236438   1.000000  -0.000000
    312          0.271105        2.245292   1.000000  -0.000000
    313          0.294139        2.249249   1.000000  -0.000000
    314          0.324385        2.253072   1.000000  -0.000000
    315          0.351128        2.271588   1.000000  -0.000000
    316          0.359795        2.274256   1.000000  -0.000000
    317          0.382328        2.281825   1.000000  -0.000000
    318          0.397292        2.290190   1.000000  -0.000000
    319          0.439995        2.305960   1.000000  -0.000000
    320          0.487693        2.311417   1.000000  -0.000000
    321          0.513640        2.324064   1.000000  -0.000000
    322          0.543464        2.333271   1.000000  -0.000000
    323          0.575109        2.342889   1.000000  -0.000000
    324          0.597413        2.363366   1.000000  -0.000000
    325          0.622083        2.366076   1.000002  -0.000000
    326          0.651184        2.384638   1.000017  -0.000000
    327          0.691539        2.394732   1.000171  -0.000000
    328          0.694261        2.405844   1.000197  -0.000000
    329          0.700027        2.413290   1.000267  -0.000000
    330          0.722953        2.421790   1.000821  -0.000000
    331          0.743967        2.428920   1.002069  -0.000000
    332          0.779565        2.437156   1.007755  -0.000000
    333          0.821985        2.450939   1.023752  -0.000000
    334          0.842402        2.455766   1.032444  -0.000000
    335          0.905101        2.470968   0.977330  -0.000000
    336          0.941463        2.484450   0.804121  -0.000000
    337          0.995090        2.493594   0.378001  -0.000000
    338          1.035208        2.498211   0.105163  -0.000000
    339          1.114627        2.521253  -0.033682  -0.000000
    340          1.136233        2.528779  -0.025042  -0.000000
    341          1.215020        2.543875  -0.002249  -0.000000
    342          1.225964        2.559212  -0.001415  -0.000000
    343          1.274651        2.582291  -0.000129  -0.000000
    344          1.299822        2.599584  -0.000030  -0.000000
    345          1.321208        2.623883  -0.000008  -0.000000
    346          1.354884        2.630177  -0.000001  -0.000000
    347          1.378686        2.636571  -0.000000  -0.000000
    348          1.429142        2.655362  -0.000000  -0.000000
    349          1.437378        2.668450  -0.000000  -0.000000
    350          1.464637        2.689380  -0.000000  -0.000000
    351          1.500573        2.713815  -0.000000  -0.000000
    352          1.531084        2.723287  -0.000000  -0.000000
    353          1.542787        2.728976  -0.000000  -0.000000
    354          1.550468        2.772684  -0.000000  -0.000000
    355          1.595691        2.776241  -0.000000  -0.000000
    356          1.603727        2.796779  -0.000000  -0.000000
    357          1.615893        2.799787  -0.000000  -0.000000
    358          1.653071        2.824620  -0.000000  -0.000000
    359          1.669629        2.835295  -0.000000  -0.000000
    360          1.692043        2.875654  -0.000000  -0.000000
    361          1.744343        2.879717  -0.000000  -0.000000
    362          1.769905        2.919730  -0.000000  -0.000000
    363          1.805203        2.948868  -0.000000  -0.000000
    364          1.826459        2.969343  -0.000000  -0.000000
    365          1.858016        2.997736  -0.000000  -0.000000
    366          1.883528        3.017690  -0.000000  -0.000000
    367          1.910019        3.030764  -0.000000  -0.000000
    368          1.944386        3.042938  -0.000000  -0.000000
    369          1.974931        3.095642  -0.000000  -0.000000
 
  0.2500000E+00  0.6721729E-20  0.0000000E+00  0.1250000E+00
      1        -42.802243      -43.374893   1.000000   1.000000
      2        -42.787494      -43.318133   1.000000   1.000000
      3        -42.770037      -43.314989   1.000000   1.000000
      4        -42.761776      -43.310325   1.000000   1.000000
      5        -42.741918      -43.284133   1.000000   1.000000
      6        -42.720605      -43.258387   1.000000   1.000000
      7        -42.705645      -43.230026   1.000000   1.000000
      8        -42.697226      -43.215029   1.000000   1.000000
      9        -42.691080      -43.189604   1.000000   1.000000
     10        -42.317418      -43.189585   1.000000   1.000000
     11        -42.239178      -43.166769   1.000000   1.000000
     12        -42.191992      -43.157409   1.000000   1.000000
     13        -41.957570      -43.153456   1.000000   1.000000
     14        -41.931014      -43.142612   1.000000   1.000000
     15        -41.923476      -43.137972   1.000000   1.000000
     16        -41.906579      -43.129225   1.000000   1.000000
     17        -41.861141      -43.096695   1.000000   1.000000
     18        -41.835861      -43.047007   1.000000   1.000000
     19        -41.830159      -43.025797   1.000000   1.000000
     20        -41.827080      -42.983182   1.000000   1.000000
     21        -41.823421      -42.951827   1.000000   1.000000
     22        -41.804616      -42.947210   1.000000   1.000000
     23        -41.785236      -42.856634   1.000000   1.000000
     24        -41.783784      -42.851721   1.000000   1.000000
     25        -41.783638      -42.770476   1.000000   1.000000
     26        -41.767419      -42.746977   1.000000   1.000000
     27        -41.754542      -42.683541   1.000000   1.000000
     28        -41.746190      -41.583029   1.000000   1.000000
     29        -41.736545      -41.487666   1.000000   1.000000
     30        -41.721880      -41.433139   1.000000   1.000000
     31        -41.718821      -40.441766   1.000000   1.000000
     32        -41.707855      -40.425591   1.000000   1.000000
     33        -41.693546      -40.126169   1.000000   1.000000
     34        -40.344551      -39.994576   1.000000   1.000000
     35        -40.299747      -39.914435   1.000000   1.000000
     36        -40.211672      -39.905720   1.000000   1.000000
     37        -40.205111      -39.790690   1.000000   1.000000
     38        -40.192321      -39.719783   1.000000   1.000000
     39        -40.066618      -39.638404   1.000000   1.000000
     40        -15.529398      -15.542656   1.000000   1.000000
     41        -15.520351      -15.522815   1.000000   1.000000
     42        -15.518566      -15.520375   1.000000   1.000000
     43        -15.507193      -15.509916   1.000000   1.000000
     44        -15.485389      -15.495315   1.000000   1.000000
     45         -7.866449       -7.873619   1.000000   1.000000
     46         -7.024984       -6.918793   1.000000   1.000000
     47         -6.099350       -5.951219   1.000000   1.000000
     48         -5.948984       -5.804468   1.000000   1.000000
     49         -5.221298       -4.999401   1.000000   1.000000
     50         -5.123799       -4.952034   1.000000   1.000000
     51         -5.056051       -4.885052   1.000000   1.000000
     52         -4.766340       -4.471349   1.000000   1.000000
     53         -4.533121       -4.213142   1.000000   1.000000
     54         -4.491805       -4.176263   1.000000   1.000000
     55         -4.463885       -4.159002   1.000000   1.000000
     56         -4.383737       -4.129919   1.000000   1.000000
     57         -4.340047       -4.048803   1.000000   1.000000
     58         -4.218973       -3.790018   1.000000   1.000000
     59         -4.105660       -3.578060   1.000000   1.000000
     60         -4.024643       -3.452231   1.000000   1.000000
     61         -3.965957       -3.362876   1.000000   1.000000
     62         -3.945501       -3.317111   1.000000   1.000000
     63         -3.883770       -3.309149   1.000000   1.000000
     64         -3.842151       -3.248574   1.000000   1.000000
     65         -3.756432       -3.228863   1.000000   1.000000
     66         -3.752980       -3.138030   1.000000   1.000000
     67         -3.733723       -3.075286   1.000000   1.000000
     68         -3.723793       -2.879605   1.000000   1.000000
     69         -3.656600       -2.846968   1.000000   1.000000
     70         -3.627417       -2.802334   1.000000   1.000000
     71         -3.560542       -2.754880   1.000000   1.000000
     72         -3.530873       -2.649422   1.000000   1.000000
     73         -3.519118       -2.626153   1.000000   1.000000
     74         -3.507896       -2.593444   1.000000   1.000000
     75         -3.442541       -2.572753   1.000000   1.000000
     76         -3.433507       -2.536698   1.000000   1.000000
     77         -3.416950       -2.500790   1.000000   1.000000
     78         -3.384970       -2.438296   1.000000   1.000000
     79         -3.341518       -2.411227   1.000000   1.000000
     80         -3.284745       -2.344479   1.000000   1.000000
     81         -3.278976       -2.326935   1.000000   1.000000
     82         -3.262320       -2.281857   1.000000   1.000000
     83         -3.242777       -2.257533   1.000000   1.000000
     84         -3.224532       -2.194166   1.000000   1.000000
     85         -3.219885       -2.170057   1.000000   1.000000
     86         -3.201686       -2.135573   1.000000   1.000000
     87         -3.188518       -2.089773   1.000000   1.000000
     88         -3.177795       -2.047984   1.000000   1.000000
     89         -3.167492       -2.034097   1.000000   1.000000
     90         -3.132741       -2.013816   1.000000   1.000000
     91         -3.123422       -1.983826   1.000000   1.000000
     92         -3.095002       -1.971770   1.000000   1.000000
     93         -3.090356       -1.939494   1.000000   1.000000
     94         -3.062488       -1.929461   1.000000   1.000000