       N       E                     dE             d eps       ncg     rms          rms(c)
DAV:   1    -0.504798326297E+03   -0.50480E+03   -0.26723E-01 19184   0.304E+00
DAV:   2    -0.504801719631E+03   -0.33933E-02   -0.33933E-02 19976   0.433E-01
DAV:   3    -0.504801925906E+03   -0.20627E-03   -0.20627E-03 23664   0.514E-02
DAV:   4    -0.504801930805E+03   -0.48993E-05   -0.48992E-05 20216   0.112E-02
DAV:   5    -0.504801931106E+03   -0.30137E-06   -0.30145E-06 12320   0.257E-03
   1 F= -.50480193E+03 E0= -.50480254E+03  d E =0.183742E-02  mag=   107.4062
