 vasp.6.3.2 27Jun22 (build Mar 15 2023 15:45:48) complex                        
  
 executed on             LinuxIFC date 2025.02.11  10:31:06
 running on    4 total cores
 distrk:  each k-point on    1 cores,    4 groups
 distr:  one band on NCORE=   1 cores,    1 groups


--------------------------------------------------------------------------------------------------------


 INCAR:
   SYSTEM = Fe2O3
   ISTART = 1
   ICHARG = 11
   LWAVE = .TRUE.
   LCHARG = .TRUE.
   LVHAR = .FALSE.
   LELF = .FALSE.
   LORBIT = 11
   ISMEAR = 1            (Gaussian smearing
   SIGMA = 0.1        (Smearing value in eV
   NELM = 100           (Max electronic SCF steps)
   NELMIN = 5           (Min electronic SCF steps)
   EDIFF = 1E-6        (SCF energy convergence
   GGA = PE
   LREAL = Auto
   PREC = Accurate
   ENCUT = 450
   NSW = 0         (Max electronic SCF steps)
   IBRION = 2           (Algorithm: 0-MD
   POTIM = 0.01
   ISIF = 2
   EDIFFG = -5E-2
   ALGO = Normal
   ISPIN = 2
   NCORE = 4
   KPAR = 8
   LDIPOL = .TRUE.
   IDIPOL = 3
   AMIX = 0.05
   BMIX = 0.0001
   IMIX = 4

 POTCAR:    PAW_PBE Fe 06Sep2000                  
 POTCAR:    PAW_PBE Cr_pv 02Aug2007               
 POTCAR:    PAW_PBE Pb_d 06Sep2000                
 -----------------------------------------------------------------------------
|                                                                             |
|           W    W    AA    RRRRR   N    N  II  N    N   GGGG   !!!           |
|           W    W   A  A   R    R  NN   N  II  NN   N  G    G  !!!           |
|           W    W  A    A  R    R  N N  N  II  N N  N  G       !!!           |
|           W WW W  AAAAAA  RRRRR   N  N N  II  N  N N  G  GGG   !            |
|           WW  WW  A    A  R   R   N   NN  II  N   NN  G    G                |
|           W    W  A    A  R    R  N    N  II  N    N   GGGG   !!!           |
|                                                                             |
|     You use a magnetic or noncollinear calculation, but did not specify     |
|     the initial magnetic moment with the MAGMOM tag. Note that a            |
|     default of 1 will be used for all atoms. This ferromagnetic setup       |
|     may break the symmetry of the crystal, in particular it may rule        |
|     out finding an antiferromagnetic solution. Thence, we recommend         |
|     setting the initial magnetic moment manually or verifying carefully     |
|     that this magnetic setup is desired.                                    |
|                                                                             |
 -----------------------------------------------------------------------------

 POTCAR:    PAW_PBE Fe 06Sep2000                  
   VRHFIN =Fe:  d7 s1                                                                               
   LEXCH  = PE                                                                                      
   EATOM  =   594.3153 eV,   43.6809 Ry                                                             
                                                                                                    
   TITEL  = PAW_PBE Fe 06Sep2000                                                                    
   LULTRA =        F    use ultrasoft PP ?                                                          
   IUNSCR =        1    unscreen: 0-lin 1-nonlin 2-no                                               
   RPACOR =    2.000    partial core radius                                                         
   POMASS =   55.847; ZVAL   =    8.000    mass and valenz                                          
   RCORE  =    2.300    outmost cutoff radius                                                       
   RWIGS  =    2.460; RWIGS  =    1.302    wigner-seitz radius (au A)                               
   ENMAX  =  267.882; ENMIN  =  200.911 eV                                                          
   RCLOC  =    1.701    cutoff for local pot                                                        
   LCOR   =        T    correct aug charges                                                         
   LPAW   =        T    paw PP                                                                      
   EAUG   =  511.368                                                                                
   DEXC   =    0.000                                                                                
   RMAX   =    2.356    core radius for proj-oper                                                   
   RAUG   =    1.300    factor for augmentation sphere                                              
   RDEP   =    2.442    radius for radial grids                                                     
   RDEPT  =    1.890    core radius for aug-charge                                                  
                                                                                                    
   Atomic configuration                                                                             
    9 entries                                                                                       
     n  l   j            E        occ.                                                              
     1  0  0.50     -6993.8440   2.0000                                                             
     2  0  0.50      -814.6047   2.0000                                                             
     2  1  1.50      -693.3689   6.0000                                                             
     3  0  0.50       -89.4732   2.0000                                                             
     3  1  1.50       -55.6373   6.0000                                                             
     3  2  2.50        -3.8151   7.0000                                                             
     4  0  0.50        -4.2551   1.0000                                                             
     4  1  1.50        -3.4015   0.0000                                                             
     4  3  2.50        -1.3606   0.0000                                                             
   Description                                                                                      
     l       E           TYP  RCUT    TYP  RCUT                                                     
     2     -3.8151135     23  2.300                                                                 
     2     -5.1756961     23  2.300                                                                 
     0     -4.2550963     23  2.300                                                                 
     0      7.2035603     23  2.300                                                                 
     1     -2.7211652     23  2.300                                                                 
     1     18.4316424     23  2.300                                                                 
  local pseudopotential read in
  partial core-charges read in
  partial kinetic energy density read in
  atomic valenz-charges read in
  non local Contribution for L=           2  read in
    real space projection operators read in
  non local Contribution for L=           2  read in
    real space projection operators read in
  non local Contribution for L=           0  read in
    real space projection operators read in
  non local Contribution for L=           0  read in
    real space projection operators read in
  non local Contribution for L=           1  read in
    real space projection operators read in
  non local Contribution for L=           1  read in
    real space projection operators read in
    PAW grid and wavefunctions read in
 
   number of l-projection  operators is LMAX  =           6
   number of lm-projection operators is LMMAX =          18
 
 POTCAR:    PAW_PBE Cr_pv 02Aug2007               
   VRHFIN =Cr : p6d5s1                                                                              
   LEXCH  = PE                                                                                      
   EATOM  =  1647.9177 eV,  121.1185 Ry                                                             
                                                                                                    
   TITEL  = PAW_PBE Cr_pv 02Aug2007                                                                 
   LULTRA =        F    use ultrasoft PP ?                                                          
   IUNSCR =        1    unscreen: 0-lin 1-nonlin 2-no                                               
   RPACOR =    2.080    partial core radius                                                         
   POMASS =   51.996; ZVAL   =   12.000    mass and valenz                                          
   RCORE  =    2.300    outmost cutoff radius                                                       
   RWIGS  =    2.500; RWIGS  =    1.323    wigner-seitz radius (au A)                               
   ENMAX  =  265.681; ENMIN  =  199.261 eV                                                          
   ICORE  =        3    local potential                                                             
   LCOR   =        T    correct aug charges                                                         
   LPAW   =        T    paw PP                                                                      
   EAUG   =  519.424                                                                                
   DEXC   =    0.000                                                                                
   RMAX   =    2.356    core radius for proj-oper                                                   
   RAUG   =    1.300    factor for augmentation sphere                                              
   RDEP   =    2.447    radius for radial grids                                                     
   RDEPT  =    1.882    core radius for aug-charge                                                  
                                                                                                    
   Atomic configuration                                                                             
    8 entries                                                                                       
     n  l   j            E        occ.                                                              
     1  0  0.50     -5880.4963   2.0000                                                             
     2  0  0.50      -667.0865   2.0000                                                             
     2  1  1.50      -560.6250   6.0000                                                             
     3  0  0.50       -73.9860   2.0000                                                             
     3  1  1.50       -45.4378   6.0000                                                             
     3  2  2.50        -2.9137   5.0000                                                             
     4  0  0.50        -4.0071   1.0000                                                             
     4  3  2.50        -1.3606   0.0000                                                             
   Description                                                                                      
     l       E           TYP  RCUT    TYP  RCUT                                                     
     1    -45.4377911     23  2.000                                                                 
     1      1.3605826     23  2.000                                                                 
     2     -2.9136672     23  2.300                                                                 
     2     -4.2742498     23  2.300                                                                 
     0     -4.0071320     23  2.300                                                                 
     0      9.4498803     23  2.300                                                                 
     3      2.7211652     23  2.300                                                                 
  local pseudopotential read in
  partial core-charges read in
  partial kinetic energy density read in
  atomic valenz-charges read in
  non local Contribution for L=           1  read in
    real space projection operators read in
  non local Contribution for L=           1  read in
    real space projection operators read in
  non local Contribution for L=           2  read in
    real space projection operators read in
  non local Contribution for L=           2  read in
    real space projection operators read in
  non local Contribution for L=           0  read in
    real space projection operators read in
  non local Contribution for L=           0  read in
    real space projection operators read in
    PAW grid and wavefunctions read in
 
   number of l-projection  operators is LMAX  =           6
   number of lm-projection operators is LMMAX =          18
 
 POTCAR:    PAW_PBE Pb_d 06Sep2000                
   VRHFIN =Pb:                                                                                      
   LEXCH  = PE                                                                                      
   EATOM  =  1661.6185 eV,  122.1255 Ry                                                             
                                                                                                    
   TITEL  = PAW_PBE Pb_d 06Sep2000                                                                  
   LULTRA =        F    use ultrasoft PP ?                                                          
   IUNSCR =        1    unscreen: 0-lin 1-nonlin 2-no                                               
   RPACOR =    2.200    partial core radius                                                         
   POMASS =  207.200; ZVAL   =   14.000    mass and valenz                                          
   RCORE  =    2.500    outmost cutoff radius                                                       
   RWIGS  =    3.260; RWIGS  =    1.725    wigner-seitz radius (au A)                               
   ENMAX  =  237.835; ENMIN  =  178.376 eV                                                          
   ICORE  =        3    local potential                                                             
   LCOR   =        T    correct aug charges                                                         
   LPAW   =        T    paw PP                                                                      
   EAUG   =  391.914                                                                                
   DEXC   =    0.000                                                                                
   RMAX   =    2.565    core radius for proj-oper                                                   
   RAUG   =    1.300    factor for augmentation sphere                                              
   RDEP   =    2.643    radius for radial grids                                                     
   RDEPT  =    2.092    core radius for aug-charge                                                  
                                                                                                    
   Atomic configuration                                                                             
   16 entries                                                                                       
     n  l   j            E        occ.                                                              
     1  0  0.50    -88091.8466   2.0000                                                             
     2  0  0.50    -15753.4197   2.0000                                                             
     2  1  1.50    -13508.1797   6.0000                                                             
     3  0  0.50     -3781.7194   2.0000                                                             
     3  1  1.50     -3138.2529   6.0000                                                             
     3  2  2.50     -2483.2977  10.0000                                                             
     4  0  0.50      -856.2895   2.0000                                                             
     4  1  1.50      -645.4942   6.0000                                                             
     4  2  2.50      -401.8768  10.0000                                                             
     4  3  3.50      -132.9059  14.0000                                                             
     5  0  0.50      -144.0950   2.0000                                                             
     5  1  1.50       -85.7879   6.0000                                                             
     5  2  2.50       -21.1769  10.0000                                                             
     6  0  0.50       -12.0372   2.0000                                                             
     6  1  1.50        -3.4971   2.0000                                                             
     5  3  2.50        -2.7212   0.0000                                                             
   Description                                                                                      
     l       E           TYP  RCUT    TYP  RCUT                                                     
     2    -21.1768523     23  2.500                                                                 
     2      1.3605826     23  2.500                                                                 
     0    -12.0371562     23  2.500                                                                 
     0     13.6058260     23  2.500                                                                 
     1     -3.4971339     23  2.500                                                                 
     1     13.6058260     23  2.500                                                                 
     3     -1.3605826      7  2.500                                                                 
  local pseudopotential read in
  partial core-charges read in
  partial kinetic energy density read in
  atomic valenz-charges read in
  non local Contribution for L=           2  read in
    real space projection operators read in
  non local Contribution for L=           2  read in
    real space projection operators read in
  non local Contribution for L=           0  read in
    real space projection operators read in
  non local Contribution for L=           0  read in
    real space projection operators read in
  non local Contribution for L=           1  read in
    real space projection operators read in
  non local Contribution for L=           1  read in
    real space projection operators read in
    PAW grid and wavefunctions read in
 
   number of l-projection  operators is LMAX  =           6
   number of lm-projection operators is LMMAX =          18
 
 Optimization of the real space projectors (new method)

 maximal supplied QI-value         = 16.25
 optimisation between [QCUT,QGAM] = [ 10.73, 21.61] = [ 32.22,130.83] Ry 
 Optimized for a Real-space Cutoff    1.42 Angstroem

   l    n(q)    QCUT    max X(q) W(low)/X(q) W(high)/X(q)  e(spline) 
   2      8    10.726    80.901    0.24E-03    0.41E-03    0.22E-06
   2      8    10.726    75.754    0.24E-03    0.41E-03    0.23E-06
   0      9    10.726    58.752    0.21E-03    0.17E-03    0.42E-07
   0      9    10.726    30.679    0.19E-03    0.16E-03    0.39E-07
   1      9    10.726    17.977    0.20E-03    0.14E-03    0.16E-06
   1      9    10.726    13.559    0.17E-03    0.11E-03    0.13E-06
 Optimization of the real space projectors (new method)

 maximal supplied QI-value         = 16.25
 optimisation between [QCUT,QGAM] = [ 10.73, 21.61] = [ 32.22,130.83] Ry 
 Optimized for a Real-space Cutoff    1.51 Angstroem

   l    n(q)    QCUT    max X(q) W(low)/X(q) W(high)/X(q)  e(spline) 
   1      9    10.726     3.262    0.86E-04    0.42E-04    0.11E-06
   1      9    10.726     5.741    0.19E-03    0.70E-04    0.20E-06
   2      9    10.726    60.438    0.11E-03    0.51E-04    0.13E-06
   2      9    10.726    55.380    0.12E-03    0.51E-04    0.13E-06
   0     10    10.726    80.273    0.42E-04    0.15E-05    0.77E-07
   0     10    10.726    36.654    0.34E-04    0.84E-06    0.69E-07
 Optimization of the real space projectors (new method)

 maximal supplied QI-value         = 15.12
 optimisation between [QCUT,QGAM] = [ 10.73, 21.62] = [ 32.26,130.87] Ry 
 Optimized for a Real-space Cutoff    1.42 Angstroem

   l    n(q)    QCUT    max X(q) W(low)/X(q) W(high)/X(q)  e(spline) 
   2      8    10.734     3.846    0.11E-03    0.12E-04    0.36E-07
   2      8    10.734     8.593    0.24E-03    0.21E-03    0.13E-06
   0      9    10.734    20.082    0.65E-04    0.10E-03    0.71E-07
   0      9    10.734     8.597    0.91E-04    0.14E-03    0.10E-06
   1      9    10.734    33.223    0.24E-03    0.75E-04    0.13E-06
   1      9    10.734    15.899    0.21E-03    0.70E-04    0.12E-06
  PAW_PBE Fe 06Sep2000                  :
 energy of atom  1       EATOM= -594.3153
 kinetic energy error for atom=    0.0034 (will be added to EATOM!!)
  PAW_PBE Cr_pv 02Aug2007               :
 energy of atom  2       EATOM=-1647.9177
 kinetic energy error for atom=    0.0115 (will be added to EATOM!!)
  PAW_PBE Pb_d 06Sep2000                :
 energy of atom  3       EATOM=-1661.6185
 kinetic energy error for atom=    0.0063 (will be added to EATOM!!)
 
 
 POSCAR: Generated by VASPKIT code
  positions in direct lattice
  velocities in cartesian coordinates
 exchange correlation table for  LEXCH =        8
   RHO(1)=    0.500       N(1)  =     2000
   RHO(2)=  100.500       N(2)  =     4000

 VTST: version 4.2, (08/11/21)

 CHAIN: initializing optimizer
 
 OPT: Using VASP Conjugate-Gradient optimizer
 CHAIN: Read ICHAIN            0
 
 POSCAR: Generated by VASPKIT code
  positions in direct lattice
  velocities in cartesian coordinates
 


--------------------------------------------------------------------------------------------------------


 ion  position               nearest neighbor table
   1  0.001  1.000  0.243-  49 2.45  13 2.45   2 2.45  39 2.45  45 2.46  36 2.47   5 2.47  11 2.49
                            15 2.80  52 2.83   4 2.84  35 2.84   6 2.85  50 2.86
   2  0.166  0.164  0.303-  22 2.39  15 2.41  18 2.43  58 2.44   1 2.45  50 2.46   8 2.49   6 2.49
                            11 2.80   5 2.82  36 2.86   3 2.87   7 2.88
   3  0.503  0.167  0.303-  18 2.41   4 2.46  51 2.46  50 2.47   8 2.47  56 2.50  58 2.52   9 2.83
                            53 2.83   5 2.84  38 2.85   2 2.87  63 2.97
   4  0.668  0.001  0.243-  39 2.44  38 2.45  49 2.45   3 2.46  47 2.46  53 2.47   5 2.47  13 2.48
                            54 2.78  51 2.82  60 2.84   1 2.84  50 2.84  56 2.85
   5  0.836  0.169  0.303-  15 2.40  22 2.44   6 2.46  51 2.46   1 2.47   4 2.47  56 2.52   2 2.82
                            10 2.83   3 2.84  39 2.84  13 2.84  63 2.94
   6  0.000  0.335  0.242-  36 2.46   5 2.46  39 2.46  40 2.46  10 2.46  43 2.47   7 2.48   2 2.49
                            22 2.79  52 2.82  61 2.83  51 2.84   1 2.85   8 2.85
   7  0.167  0.503  0.304-  22 2.39  27 2.42  30 2.43  58 2.43  52 2.45  12 2.45   6 2.48   8 2.49
                            11 2.82  10 2.86   9 2.86  40 2.88   2 2.88
   8  0.335  0.333  0.243-  40 2.45  38 2.45  36 2.46  41 2.46   9 2.46   3 2.47   2 2.49   7 2.49
                            12 2.83  62 2.83  50 2.84  51 2.84   6 2.85  58 2.87
   9  0.503  0.500  0.303-  30 2.40  51 2.46  54 2.46   8 2.46  12 2.47  33 2.47  58 2.54  10 2.81
                            41 2.82   3 2.83  53 2.84   7 2.86  63 2.91
  10  0.832  0.502  0.302-  27 2.39  51 2.45   6 2.46  54 2.46  52 2.48  22 2.50  33 2.51   9 2.81
                            43 2.81  13 2.82   5 2.83   7 2.86  63 2.89
  11  0.169  0.834  0.305-  15 2.45  18 2.46  27 2.46  30 2.46  50 2.46  52 2.48   1 2.49  12 2.49
                            53 2.79   2 2.80   7 2.82  13 2.83  45 2.89
  12  0.333  0.666  0.243-  53 2.42  41 2.45  40 2.45   7 2.45  45 2.46   9 2.47  47 2.47  11 2.49
                            52 2.81  30 2.81   8 2.83  50 2.83  54 2.83  46 2.84
  13  0.837  0.834  0.303-  27 2.40  33 2.41  15 2.41  56 2.42   1 2.45  54 2.45   4 2.48  52 2.48
                            10 2.82  11 2.83  49 2.84   5 2.84  53 2.91
  14  0.001  0.001  0.002-  20 2.46  34 2.46  28 2.46  16 2.48  26 2.83  21 2.83  35 2.84  17 2.85
                            55 2.85
  15  0.997  0.004  0.361-   5 2.40   2 2.41  13 2.41  11 2.45  22 2.80   1 2.80  56 2.81  27 2.89
                            18 2.90
  16  0.168  0.170  0.063-  62 2.44  37 2.45  57 2.45  17 2.46  35 2.46  61 2.46  21 2.46  14 2.48
                            23 2.80  36 2.82  28 2.85  20 2.86  19 2.87
  17  0.335  0.003  0.003-  19 2.45  16 2.46  31 2.46  28 2.46  57 2.81  37 2.82  55 2.83  14 2.85
                            29 2.86
  18  0.337  0.005  0.362-   3 2.41   2 2.43  11 2.46  53 2.46  58 2.78  50 2.81  56 2.83  15 2.90
                            30 2.91
  19  0.505  0.169  0.061-  59 2.43  42 2.45  17 2.45  60 2.46  62 2.47  55 2.47  57 2.48  37 2.48
                            20 2.80  24 2.81  31 2.83  38 2.87  16 2.87
  20  0.833  0.167  0.062-  59 2.43  14 2.46  60 2.46  42 2.46  21 2.46  61 2.46  35 2.46  55 2.50
                            19 2.80  34 2.81  25 2.85  39 2.85  16 2.86
  21  0.000  0.335  0.002-  23 2.46  25 2.46  20 2.46  16 2.46  59 2.81  26 2.83  14 2.83  57 2.83
                            61 2.84
  22  0.008  0.333  0.361-   2 2.39   7 2.39   5 2.44  10 2.50  58 2.70   6 2.79  15 2.80  27 2.81
                            63 2.97
  23  0.168  0.499  0.063-  61 2.45  21 2.46  57 2.46  46 2.46  44 2.46  62 2.47  29 2.47  26 2.48
                            16 2.80  40 2.82  24 2.85  25 2.85  28 2.85
  24  0.501  0.499  0.062-  59 2.43  42 2.45  62 2.45  29 2.46  46 2.46  32 2.47  57 2.47  48 2.47
                            19 2.81  25 2.84  23 2.85  41 2.86  31 2.86
  25  0.834  0.502  0.062-  59 2.42  61 2.45  32 2.45  44 2.46  48 2.46  26 2.46  21 2.46  42 2.46
                            34 2.83  24 2.84  43 2.84  23 2.85  20 2.85
  26  0.001  0.668  0.002-  25 2.46  28 2.46  23 2.48  34 2.48  21 2.83  14 2.83  29 2.84  44 2.85
                            32 2.85
  27  0.995  0.664  0.361-  10 2.39  13 2.40   7 2.42  11 2.46  52 2.80  22 2.81  33 2.83  15 2.89
                            30 2.95
  28  0.168  0.835  0.062-  35 2.45  37 2.46  44 2.46  46 2.46  17 2.46  29 2.46  26 2.46  14 2.46
                            45 2.83  16 2.85  31 2.85  23 2.85  34 2.86
  29  0.334  0.667  0.002-  24 2.46  28 2.46  23 2.47  31 2.47  57 2.83  46 2.83  32 2.84  26 2.84
                            17 2.86
  30  0.341  0.663  0.362-   9 2.40  53 2.43   7 2.43  11 2.46  33 2.76  12 2.81  58 2.81  18 2.91
                            27 2.95
  31  0.502  0.836  0.062-  60 2.44  55 2.45  37 2.45  17 2.46  48 2.46  32 2.47  46 2.47  29 2.47
                            34 2.83  19 2.83  47 2.85  28 2.85  24 2.86
  32  0.668  0.667  0.002-  25 2.45  24 2.47  31 2.47  34 2.47  55 2.80  59 2.81  29 2.84  26 2.85
                            48 2.85
  33  0.664  0.679  0.361-  13 2.41  53 2.41   9 2.47  10 2.51  56 2.64  30 2.76  54 2.79  27 2.83
                            63 2.97
  34  0.833  0.836  0.062-  60 2.44  35 2.46  48 2.46  14 2.46  55 2.46  32 2.47  44 2.47  26 2.48
                            20 2.81  31 2.83  25 2.83  49 2.85  28 2.86
  35  0.001  0.001  0.122-  28 2.45  34 2.46  36 2.46  39 2.46  45 2.46  16 2.46  20 2.46  49 2.47
                            44 2.83  14 2.84  61 2.84   1 2.84  37 2.85  60 2.85
  36  0.167  0.168  0.182-  35 2.46   8 2.46   6 2.46  62 2.46  37 2.46   1 2.47  61 2.47  50 2.49
                            40 2.81  16 2.82  45 2.83  39 2.84  38 2.86   2 2.86
  37  0.335  0.002  0.122-  16 2.45  31 2.45  28 2.46  38 2.46  45 2.46  47 2.46  36 2.46  19 2.48
                            62 2.81  17 2.82  60 2.84  35 2.85  46 2.85  50 2.87
  38  0.502  0.167  0.183-  62 2.44  51 2.44   4 2.45   8 2.45  60 2.46  42 2.46  37 2.46  50 2.47
                            47 2.82  41 2.84  39 2.84   3 2.85  36 2.86  19 2.87
  39  0.834  0.166  0.183-  51 2.44   4 2.44   1 2.45   6 2.46  61 2.46  35 2.46  60 2.46  42 2.47
                            49 2.82  38 2.84  36 2.84   5 2.84  20 2.85  43 2.86
  40  0.170  0.499  0.182-  62 2.45  12 2.45   8 2.45  46 2.45   6 2.46  52 2.46  61 2.46  44 2.47
                            36 2.81  23 2.82  41 2.84  45 2.86   7 2.88  43 2.89
  41  0.502  0.501  0.183-  51 2.45  12 2.45   8 2.46  48 2.46  42 2.46  62 2.47  54 2.47  46 2.47
                            43 2.81   9 2.82  38 2.84  40 2.84  47 2.84  24 2.86
  42  0.667  0.334  0.122-  19 2.45  24 2.45  38 2.46  20 2.46  43 2.46  41 2.46  25 2.46  39 2.47
                            59 2.81  61 2.82  62 2.82  51 2.83  60 2.84  48 2.84
  43  0.831  0.503  0.183-  48 2.44  51 2.45  42 2.46   6 2.47  61 2.47  44 2.47  52 2.47  54 2.48
                            41 2.81  10 2.81  49 2.82  25 2.84  39 2.86  40 2.89
  44  0.001  0.668  0.123-  25 2.46  49 2.46  28 2.46  45 2.46  23 2.46  43 2.47  40 2.47  34 2.47
                            52 2.82  61 2.83  35 2.83  46 2.84  26 2.85  48 2.85
  45  0.169  0.835  0.182-  52 2.45  50 2.46   1 2.46  46 2.46  35 2.46  37 2.46  12 2.46  44 2.46
                            47 2.82  36 2.83  28 2.83  49 2.85  40 2.86  11 2.89
  46  0.334  0.667  0.122-  40 2.45  23 2.46  28 2.46  45 2.46  24 2.46  47 2.46  31 2.47  41 2.47
                            29 2.83  48 2.84  12 2.84  44 2.84  62 2.84  37 2.85
  47  0.500  0.835  0.183-  54 2.43  50 2.44  60 2.45   4 2.46  37 2.46  48 2.46  46 2.46  12 2.47
                            53 2.79  38 2.82  45 2.82  41 2.84  31 2.85  49 2.86
  48  0.667  0.668  0.123-  43 2.44  25 2.46  31 2.46  41 2.46  34 2.46  49 2.46  47 2.46  24 2.47
                            60 2.82  46 2.84  42 2.84  54 2.85  32 2.85  44 2.85
  49  0.835  0.834  0.183-   1 2.45  54 2.45   4 2.45  44 2.46  52 2.46  48 2.46  60 2.46  35 2.47
                            43 2.82  39 2.82  13 2.84  34 2.85  45 2.85  47 2.86
  50  0.336  0.999  0.244-  53 2.38  47 2.44  45 2.46   2 2.46  11 2.46   3 2.47  38 2.47  36 2.49
                            18 2.81  12 2.83   4 2.84   8 2.84   1 2.86  37 2.87
  51  0.668  0.333  0.242-  38 2.44  39 2.44  41 2.45  43 2.45  10 2.45   9 2.46   5 2.46   3 2.46
                             4 2.82  42 2.83   6 2.84   8 2.84  54 2.90  63 3.57
  52  0.004  0.667  0.242-  45 2.45   7 2.45  40 2.46  49 2.46  43 2.47  10 2.48  13 2.48  11 2.48
                            27 2.80  12 2.81  44 2.82   6 2.82   1 2.83  54 2.90
  53  0.496  0.834  0.301-  50 2.38  33 2.41  54 2.41  12 2.42  30 2.43  18 2.46  56 2.46   4 2.47
                            11 2.79  47 2.79   3 2.83   9 2.84  13 2.91
  54  0.665  0.674  0.243-  53 2.41  47 2.43  49 2.45  13 2.45   9 2.46  10 2.46  41 2.47  43 2.48
                             4 2.78  33 2.79  12 2.83  48 2.85  52 2.90  51 2.90
  55  0.666  0.997  0.000-  31 2.45  34 2.46  19 2.47  20 2.50  32 2.80  17 2.83  14 2.85  60 2.89
                            59 2.89
  56  0.668  0.990  0.363-  13 2.42  53 2.46   3 2.50   5 2.52  33 2.64  15 2.81  18 2.83   4 2.85
                            63 3.07
  57  0.332  0.334  0.001-  16 2.45  23 2.46  24 2.47  19 2.48  17 2.81  29 2.83  21 2.83  62 2.86
                            59 2.89
  58  0.325  0.333  0.364-   7 2.43   2 2.44   3 2.52   9 2.54  22 2.70  18 2.78  30 2.81   8 2.87
                            63 3.05
  59  0.670  0.337  0.003-  25 2.42  19 2.43  24 2.43  20 2.43  32 2.81  42 2.81  21 2.81  57 2.89
                            55 2.89
  60  0.667  1.000  0.122-  34 2.44  31 2.44  47 2.45  38 2.46  20 2.46  39 2.46  19 2.46  49 2.46
                            48 2.82   4 2.84  42 2.84  37 2.84  35 2.85  55 2.89
  61  0.998  0.335  0.122-  25 2.45  23 2.45  39 2.46  40 2.46  20 2.46  16 2.46  43 2.47  36 2.47
                            42 2.82  44 2.83   6 2.83  21 2.84  35 2.84  62 2.89
  62  0.337  0.332  0.123-  38 2.44  16 2.44  40 2.45  24 2.45  36 2.46  41 2.47  23 2.47  19 2.47
                            37 2.81  42 2.82   8 2.83  46 2.84  57 2.86  61 2.89
  63  0.672  0.342  0.394-  10 2.89   9 2.91   5 2.94  22 2.97  33 2.97   3 2.97  58 3.05  56 3.07
                            51 3.57
 
  Warning from LATTYP: Monoclinic adjustment (A1->A3, A2->A1, A3->A2)!
  LATTYP: Found a simple monoclinic cell.
 ALAT       =     8.4969997406
 B/A-ratio  =     2.7768624260
 C/A-ratio  =     1.0042014647
 COS(beta)  =    -0.0000611195
  
  Lattice vectors:
  
 A1 = (  -0.0005193328,   8.4969997247,   0.0000000000)
 A2 = (   0.0000000000,   0.0000000000,  23.5949993134)
 A3 = (   8.5326995850,   0.0000000000,   0.0000000000)


Analysis of symmetry for initial positions (statically):
=====================================================================
 Subroutine PRICEL returns:
 Original cell was already a primitive cell.
 

 Routine SETGRP: Setting up the symmetry group for a 
 simple monoclinic supercell.


 Subroutine GETGRP returns: Found  1 space group operations
 (whereof  1 operations were pure point group operations)
 out of a pool of  4 trial point group operations.


The static configuration has the point symmetry C_1 .


Analysis of symmetry for dynamics (positions and initial velocities):
=====================================================================
 Subroutine PRICEL returns:
 Original cell was already a primitive cell.
 

 Routine SETGRP: Setting up the symmetry group for a 
 simple monoclinic supercell.


 Subroutine GETGRP returns: Found  1 space group operations
 (whereof  1 operations were pure point group operations)
 out of a pool of  4 trial point group operations.


The dynamic configuration has the point symmetry C_1 .


Analysis of constrained symmetry for selective dynamics:
=====================================================================
 Subroutine PRICEL returns:
 Original cell was already a primitive cell.
 

 Routine SETGRP: Setting up the symmetry group for a 
 simple monoclinic supercell.


 Subroutine GETGRP returns: Found  1 space group operations
 (whereof  1 operations were pure point group operations)
 out of a pool of  4 trial point group operations.


The constrained configuration has the point symmetry C_1 .


Analysis of structural, dynamic, and magnetic symmetry:
=====================================================================
 Subroutine PRICEL returns:
 Original cell was already a primitive cell.
 

 Routine SETGRP: Setting up the symmetry group for a 
 simple monoclinic supercell.


 Subroutine GETGRP returns: Found  1 space group operations
 (whereof  1 operations were pure point group operations)
 out of a pool of  4 trial point group operations.


The overall configuration has the point symmetry C_1 .


 Subroutine INISYM returns: Found  1 space group operations
 (whereof  1 operations are pure point group operations),
 and found     1 'primitive' translations


----------------------------------------------------------------------------------------

                                     Primitive cell                                     

  volume of cell :    1710.6928

  direct lattice vectors                    reciprocal lattice vectors
     8.532699585  0.000000000  0.000000000     0.117196204  0.000007163  0.000000000
    -0.000519333  8.496999725  0.000000000     0.000000000  0.117688600  0.000000000
     0.000000000  0.000000000 23.594999313     0.000000000  0.000000000  0.042381862

  length of vectors
     8.532699585  8.496999741 23.594999313     0.117196204  0.117688600  0.042381862

  position of ions in fractional coordinates (direct lattice)
     0.000860000  0.999930000  0.242710000
     0.166293615  0.164311835  0.303486325
     0.502589831  0.167011504  0.303486109
     0.668220000  0.001070000  0.242720000
     0.835562247  0.168821008  0.303317600
     0.000440000  0.334970000  0.242400000
     0.167334776  0.502765111  0.303946951
     0.334690000  0.333050000  0.242670000
     0.502882177  0.499838136  0.302723446
     0.832122089  0.502269551  0.302050477
     0.168578021  0.834239259  0.304834945
     0.333420000  0.665550000  0.242610000
     0.836914212  0.834139719  0.303324689
     0.000640000  0.001190000  0.001990000
     0.997215991  0.003948191  0.361408747
     0.168430000  0.169620000  0.062690000
     0.334600000  0.002970000  0.002540000
     0.337013118  0.005367942  0.362497808
     0.504630000  0.168500000  0.061200000
     0.832720000  0.166700000  0.061930000
     0.000040000  0.334670000  0.002130000
     0.007925537  0.333196277  0.360750145
     0.167570000  0.498950000  0.062680000
     0.500990000  0.498960000  0.062060000
     0.833930000  0.502340000  0.062350000
     0.001210000  0.667850000  0.001880000
     0.994631894  0.663742267  0.360643849
     0.167920000  0.834620000  0.062280000
     0.334370000  0.666640000  0.002250000
     0.340528821  0.663337203  0.361603675
     0.501520000  0.835630000  0.062170000
     0.667530000  0.667050000  0.001750000
     0.663739578  0.679260949  0.361309245
     0.832930000  0.835840000  0.062350000
     0.001210000  0.000980000  0.122250000
     0.167000000  0.168110000  0.182390000
     0.334700000  0.002270000  0.121920000
     0.501740000  0.167160000  0.182630000
     0.834210000  0.166390000  0.182830000
     0.169640000  0.498680000  0.182090000
     0.502190000  0.500810000  0.183170000
     0.667410000  0.333950000  0.122330000
     0.831340000  0.502530000  0.182830000
     0.001320000  0.667950000  0.122530000
     0.168980000  0.835090000  0.182430000
     0.334460000  0.667030000  0.122230000
     0.499710000  0.835380000  0.182780000
     0.666980000  0.668400000  0.122590000
     0.834880000  0.834030000  0.182940000
     0.335580000  0.998630000  0.243530000
     0.668010000  0.332620000  0.242290000
     0.004480000  0.667390000  0.242170000
     0.495567346  0.834049135  0.301203769
     0.665210000  0.673510000  0.243270000
     0.666200000  0.996800000  0.000000000
     0.667875320  0.989785789  0.363381366
     0.332130000  0.333860000  0.001350000
     0.324554527  0.332563903  0.364350652
     0.670400000  0.336730000  0.003210000
     0.667280000  0.999980000  0.122460000
     0.998060000  0.334950000  0.122350000
     0.336750000  0.332380000  0.122610000
     0.672411742  0.341773777  0.393574482

  ion indices of the primitive-cell ions
   primitive index   ion index
                 1           1
                 2           2
                 3           3
                 4           4
                 5           5
                 6           6
                 7           7
                 8           8
                 9           9
                10          10
                11          11
                12          12
                13          13
                14          14
                15          15
                16          16
                17          17
                18          18
                19          19
                20          20
                21          21
                22          22
                23          23
                24          24
                25          25
                26          26
                27          27
                28          28
                29          29
                30          30
                31          31
                32          32
                33          33
                34          34
                35          35
                36          36
                37          37
                38          38
                39          39
                40          40
                41          41
                42          42
                43          43
                44          44
                45          45
                46          46
                47          47
                48          48
                49          49
                50          50
                51          51
                52          52
                53          53
                54          54
                55          55
                56          56
                57          57
                58          58
                59          59
                60          60
                61          61
                62          62
                63          63

----------------------------------------------------------------------------------------

 
 
 KPOINTS: K-Spacing Value to Generate K-Mesh: 0.03

Automatic generation of k-mesh.
 Grid dimensions read from file:
 generate k-points for:    4    4    1

 Generating k-lattice:

  Cartesian coordinates                     Fractional coordinates (reciprocal lattice)
     0.029299051  0.000001791  0.000000000     0.250000000  0.000000000  0.000000000
     0.000000000  0.029422150  0.000000000     0.000000000  0.250000000  0.000000000
     0.000000000  0.000000000  0.042381862     0.000000000  0.000000000  1.000000000

  Length of vectors
     0.029299051  0.029422150  0.042381862

  Shift w.r.t. Gamma in fractional coordinates (k-lattice)
     0.000000000  0.000000000  0.000000000

 
 Subroutine IBZKPT returns following result:
 ===========================================
 
 Found     10 irreducible k-points:
 
 Following reciprocal coordinates:
            Coordinates               Weight
  0.000000  0.000000  0.000000      1.000000
  0.250000  0.000000  0.000000      2.000000
  0.500000  0.000000  0.000000      1.000000
  0.000000  0.250000  0.000000      2.000000
  0.250000  0.250000  0.000000      2.000000
  0.500000  0.250000  0.000000      2.000000
 -0.250000  0.250000  0.000000      2.000000
  0.000000  0.500000  0.000000      1.000000
  0.250000  0.500000  0.000000      2.000000
  0.500000  0.500000  0.000000      1.000000
 
 Following cartesian coordinates:
            Coordinates               Weight
  0.000000  0.000000  0.000000      1.000000
  0.029299  0.000002  0.000000      2.000000
  0.058598  0.000004  0.000000      1.000000
  0.000000  0.029422  0.000000      2.000000
  0.029299  0.029424  0.000000      2.000000
  0.058598  0.029426  0.000000      2.000000
 -0.029299  0.029420  0.000000      2.000000
  0.000000  0.058844  0.000000      1.000000
  0.029299  0.058846  0.000000      2.000000
  0.058598  0.058848  0.000000      1.000000
 


--------------------------------------------------------------------------------------------------------




 Dimension of arrays:
   k-points           NKPTS =     10   k-points in BZ     NKDIM =     10   number of bands    NBANDS=    369
   number of dos      NEDOS =    301   number of ions     NIONS =     63
   non local maximal  LDIM  =      6   non local SUM 2l+1 LMDIM =     18
   total plane-waves  NPLWV = 604800
   max r-space proj   IRMAX =   5137   max aug-charges    IRDMAX=  18968
   dimension x,y,z NGX =    60 NGY =   60 NGZ =  168
   dimension x,y,z NGXF=   120 NGYF=  120 NGZF=  336
   support grid    NGXF=   120 NGYF=  120 NGZF=  336
   ions per type =              49  13   1
   NGX,Y,Z   is equivalent  to a cutoff of  11.69, 11.74, 11.84 a.u.
   NGXF,Y,Z  is equivalent  to a cutoff of  23.38, 23.48, 23.67 a.u.

 SYSTEM =  Fe2O3                                   
 POSCAR =  Generated by VASPKIT code               

 Startparameter for this run:
   NWRITE =      2    write-flag & timer
   PREC   = accura    normal or accurate (medium, high low for compatibility)
   ISTART =      1    job   : 0-new  1-cont  2-samecut
   ICHARG =     11    charge: 1-file 2-atom 10-const
   ISPIN  =      2    spin polarized calculation?
   LNONCOLLINEAR =      F non collinear calculations
   LSORBIT =      F    spin-orbit coupling
   INIWAV =      1    electr: 0-lowe 1-rand  2-diag
   LASPH  =      F    aspherical Exc in radial PAW
 Electronic Relaxation 1
   ENCUT  =  450.0 eV  33.07 Ry    5.75 a.u.  14.76 14.70 40.81*2*pi/ulx,y,z
   ENINI  =  450.0     initial cutoff
   ENAUG  =  519.4 eV  augmentation charge cutoff
   NELM   =    100;   NELMIN=  5; NELMDL=  0     # of ELM steps 
   EDIFF  = 0.1E-05   stopping-criterion for ELM
   LREAL  =      T    real-space projection
   NLSPLINE    = F    spline interpolate recip. space projectors
   LCOMPAT=      F    compatible to vasp.4.4
   GGA_COMPAT  = T    GGA compatible to vasp.4.4-vasp.4.6
   LMAXPAW     = -100 max onsite density
   LMAXMIX     =    2 max onsite mixed and CHGCAR
   VOSKOWN=      0    Vosko Wilk Nusair interpolation
   ROPT   =   -0.00025  -0.00025  -0.00025
 Ionic relaxation
   EDIFFG = -.5E-01   stopping-criterion for IOM
   NSW    =      0    number of steps for IOM
   NBLOCK =      1;   KBLOCK =      1    inner block; outer block 
   IBRION =     -1    ionic relax: 0-MD 1-quasi-New 2-CG
   NFREE  =      1    steps in history (QN), initial steepest desc. (CG)
   ISIF   =      2    stress and relaxation
   IWAVPR =     10    prediction:  0-non 1-charg 2-wave 3-comb
   ISYM   =      2    0-nonsym 1-usesym 2-fastsym
   LCORR  =      T    Harris-Foulkes like correction to forces

   POTIM  = 0.0100    time-step for ionic-motion
   TEIN   =    0.0    initial temperature
   TEBEG  =    0.0;   TEEND  =   0.0 temperature during run
   SMASS  =  -3.00    Nose mass-parameter (am)
   estimated Nose-frequenzy (Omega)   =  0.10E-29 period in steps = 0.63E+48 mass=  -0.166E-26a.u.
   SCALEE = 1.0000    scale energy and forces
   NPACO  =    256;   APACO  = 10.0  distance and # of slots for P.C.
   PSTRESS=    0.0 pullay stress

  Mass of Ions in am
   POMASS =  55.85 52.00207.20
  Ionic Valenz
   ZVAL   =   8.00 12.00 14.00
  Atomic Wigner-Seitz radii
   RWIGS  =  -1.00 -1.00 -1.00
  virtual crystal weights 
   VCA    =   1.00  1.00  1.00
   NELECT =     562.0000    total number of electrons
   NUPDOWN=      -1.0000    fix difference up-down

 DOS related values:
   EMIN   =  10.00;   EMAX   =-10.00  energy-range for DOS
   EFERMI =   0.00
   ISMEAR =     1;   SIGMA  =   0.10  broadening in eV -4-tet -1-fermi 0-gaus

 Electronic relaxation 2 (details)
   IALGO  =     38    algorithm
   LDIAG  =      T    sub-space diagonalisation (order eigenvalues)
   LSUBROT=      F    optimize rotation matrix (better conditioning)
   TURBO    =      0    0=normal 1=particle mesh
   IRESTART =      0    0=no restart 2=restart with 2 vectors
   NREBOOT  =      0    no. of reboots
   NMIN     =      0    reboot dimension
   EREF     =   0.00    reference energy to select bands
   IMIX   =      4    mixing-type and parameters
     AMIX     =   0.05;   BMIX     =  0.00
     AMIX_MAG =   0.20;   BMIX_MAG =  0.00
     AMIN     =   0.05
     WC   =   100.;   INIMIX=   1;  MIXPRE=   1;  MAXMIX= -45

 Intra band minimization:
   WEIMIN = 0.0000     energy-eigenvalue tresh-hold
   EBREAK =  0.68E-09  absolut break condition
   DEPER  =   0.30     relativ break condition  

   TIME   =   0.40     timestep for ELM

  volume/ion in A,a.u.               =      27.15       183.24
  Fermi-wavevector in a.u.,A,eV,Ry     =   1.129613  2.134659 17.361374  1.276025
  Thomas-Fermi vector in A             =   2.266307
 
 Write flags
   LWAVE        =      T    write WAVECAR
   LDOWNSAMPLE  =      F    k-point downsampling of WAVECAR
   LCHARG       =      T    write CHGCAR
   LVTOT        =      F    write LOCPOT, total local potential
   LVHAR        =      F    write LOCPOT, Hartree potential only
   LELF         =      F    write electronic localiz. function (ELF)
   LORBIT       =     11    0 simple, 1 ext, 2 COOP (PROOUT), +10 PAW based schemes


 Dipole corrections
   LMONO  =      F    monopole corrections only (constant potential shift)
   LDIPOL =      T    correct potential (dipole corrections)
   IDIPOL =      3    1-x, 2-y, 3-z, 4-all directions 
   EPSILON=  1.0000000 bulk dielectric constant

 Exchange correlation treatment:
   GGA     =    PE    GGA type
   LEXCH   =     8    internal setting for exchange type
   LIBXC   =     F    Libxc                    
   VOSKOWN =     0    Vosko Wilk Nusair interpolation
   LHFCALC =     F    Hartree Fock is set to
   LHFONE  =     F    Hartree Fock one center treatment
   AEXX    =    0.0000 exact exchange contribution

 Linear response parameters
   LEPSILON=     F    determine dielectric tensor
   LRPA    =     F    only Hartree local field effects (RPA)
   LNABLA  =     F    use nabla operator in PAW spheres
   LVEL    =     F    velocity operator in full k-point grid
   CSHIFT  =0.1000    complex shift for real part using Kramers Kronig
   OMEGAMAX=  -1.0    maximum frequency
   DEG_THRESHOLD= 0.2000000E-02 threshold for treating states as degnerate
   RTIME   =   -0.100 relaxation time in fs
  (WPLASMAI=    0.000 imaginary part of plasma frequency in eV, 0.658/RTIME)
   DFIELD  = 0.0000000 0.0000000 0.0000000 field for delta impulse in time
 
  Optional k-point grid parameters
   LKPOINTS_OPT  =     F    use optional k-point grid
   KPOINTS_OPT_MODE=     1    mode for optional k-point grid
 
 Orbital magnetization related:
   ORBITALMAG=     F  switch on orbital magnetization
   LCHIMAG   =     F  perturbation theory with respect to B field
   DQ        =  0.001000  dq finite difference perturbation B field
   LLRAUG    =     F  two centre corrections for induced B field



--------------------------------------------------------------------------------------------------------


 Static calculation
 charge density and potential remain constant during run
 spin polarized calculation
 Variant of blocked Davidson
 Davidson routine will perform the subspace rotation
 perform sub-space diagonalisation
    after iterative eigenvector-optimisation
 no mixing
 using additional bands           88
 real space projection scheme for non local part
 use partial core corrections
 calculate Harris-corrections to forces 
   (improved forces if not selfconsistent)
 use gradient corrections 
 WARNING: stress and forces are not correct
  (second derivative of E(xc) not defined)
 use of overlap-Matrix (Vanderbilt PP)
 Methfessel and Paxton  Order N= 1 SIGMA  =   0.10


--------------------------------------------------------------------------------------------------------


  energy-cutoff  :      450.00
  volume of cell :     1710.69
      direct lattice vectors                 reciprocal lattice vectors
     8.532699585  0.000000000  0.000000000     0.117196204  0.000007163  0.000000000
    -0.000519333  8.496999725  0.000000000     0.000000000  0.117688600  0.000000000
     0.000000000  0.000000000 23.594999313     0.000000000  0.000000000  0.042381862

  length of vectors
     8.532699585  8.496999741 23.594999313     0.117196204  0.117688600  0.042381862


 
 old parameters found on file WAVECAR:
  energy-cutoff  :      450.00
  volume of cell :     1710.69
      direct lattice vectors                 reciprocal lattice vectors
     8.532699585  0.000000000  0.000000000     0.117196204  0.000007163  0.000000000
    -0.000519333  8.496999725  0.000000000     0.000000000  0.117688600  0.000000000
     0.000000000  0.000000000 23.594999313     0.000000000  0.000000000  0.042381862

  length of vectors

 
 k-points in units of 2pi/SCALE and weight: K-Spacing Value to Generate K-Mesh: 0.03
   0.00000000  0.00000000  0.00000000       0.062
   0.02929905  0.00000179  0.00000000       0.125
   0.05859810  0.00000358  0.00000000       0.062
   0.00000000  0.02942215  0.00000000       0.125
   0.02929905  0.02942394  0.00000000       0.125
   0.05859810  0.02942573  0.00000000       0.125
  -0.02929905  0.02942036  0.00000000       0.125
   0.00000000  0.05884430  0.00000000       0.062
   0.02929905  0.05884609  0.00000000       0.125
   0.05859810  0.05884788  0.00000000       0.062
 
 k-points in reciprocal lattice and weights: K-Spacing Value to Generate K-Mesh: 0.03
   0.00000000  0.00000000  0.00000000       0.062
   0.25000000  0.00000000  0.00000000       0.125
   0.50000000  0.00000000  0.00000000       0.062
   0.00000000  0.25000000  0.00000000       0.125
   0.25000000  0.25000000  0.00000000       0.125
   0.50000000  0.25000000  0.00000000       0.125
  -0.25000000  0.25000000  0.00000000       0.125
   0.00000000  0.50000000  0.00000000       0.062
   0.25000000  0.50000000  0.00000000       0.125
   0.50000000  0.50000000  0.00000000       0.062
 
 position of ions in fractional coordinates (direct lattice) 
   0.00086000  0.99993000  0.24271000
   0.16629362  0.16431183  0.30348632
   0.50258983  0.16701150  0.30348611
   0.66822000  0.00107000  0.24272000
   0.83556225  0.16882101  0.30331760
   0.00044000  0.33497000  0.24240000
   0.16733478  0.50276511  0.30394695
   0.33469000  0.33305000  0.24267000
   0.50288218  0.49983814  0.30272345
   0.83212209  0.50226955  0.30205048
   0.16857802  0.83423926  0.30483494
   0.33342000  0.66555000  0.24261000
   0.83691421  0.83413972  0.30332469
   0.00064000  0.00119000  0.00199000
   0.99721599  0.00394819  0.36140875
   0.16843000  0.16962000  0.06269000
   0.33460000  0.00297000  0.00254000
   0.33701312  0.00536794  0.36249781
   0.50463000  0.16850000  0.06120000
   0.83272000  0.16670000  0.06193000
   0.00004000  0.33467000  0.00213000
   0.00792554  0.33319628  0.36075015
   0.16757000  0.49895000  0.06268000
   0.50099000  0.49896000  0.06206000
   0.83393000  0.50234000  0.06235000
   0.00121000  0.66785000  0.00188000
   0.99463189  0.66374227  0.36064385
   0.16792000  0.83462000  0.06228000
   0.33437000  0.66664000  0.00225000
   0.34052882  0.66333720  0.36160367
   0.50152000  0.83563000  0.06217000
   0.66753000  0.66705000  0.00175000
   0.66373958  0.67926095  0.36130925
   0.83293000  0.83584000  0.06235000
   0.00121000  0.00098000  0.12225000
   0.16700000  0.16811000  0.18239000
   0.33470000  0.00227000  0.12192000
   0.50174000  0.16716000  0.18263000
   0.83421000  0.16639000  0.18283000
   0.16964000  0.49868000  0.18209000
   0.50219000  0.50081000  0.18317000
   0.66741000  0.33395000  0.12233000
   0.83134000  0.50253000  0.18283000
   0.00132000  0.66795000  0.12253000
   0.16898000  0.83509000  0.18243000
   0.33446000  0.66703000  0.12223000
   0.49971000  0.83538000  0.18278000
   0.66698000  0.66840000  0.12259000
   0.83488000  0.83403000  0.18294000
   0.33558000  0.99863000  0.24353000
   0.66801000  0.33262000  0.24229000
   0.00448000  0.66739000  0.24217000
   0.49556735  0.83404914  0.30120377
   0.66521000  0.67351000  0.24327000
   0.66620000  0.99680000  0.00000000
   0.66787532  0.98978579  0.36338137
   0.33213000  0.33386000  0.00135000
   0.32455453  0.33256390  0.36435065
   0.67040000  0.33673000  0.00321000
   0.66728000  0.99998000  0.12246000
   0.99806000  0.33495000  0.12235000
   0.33675000  0.33238000  0.12261000
   0.67241174  0.34177378  0.39357448
 
 position of ions in cartesian coordinates  (Angst):
   0.00681883  8.49640493  5.72674228
   1.41884813  1.39615762  7.16075962
   4.28836131  1.41909670  7.16075454
   5.70171996  0.00909179  5.72697823
   7.12951397  1.43447206  7.15677857
   0.00358043  2.84624000  5.71942783
   1.42755627  4.27199501  7.17162810
   2.85563626  2.82992576  5.72579848
   4.29068296  4.24712450  7.14275949
   7.09998695  4.26778424  7.12688081
   1.43799237  7.08853076  7.19258032
   2.84462705  5.65517817  5.72438278
   7.14070436  7.08768496  7.15694582
   0.00546031  0.01011143  0.04695405
   8.50894242  0.03354778  8.52743913
   1.43707450  1.44126109  1.47917051
   2.85503974  0.02523609  0.05993130
   2.87562890  0.04561140  8.55313554
   4.30576868  1.43174445  1.44401396
   7.10526303  1.41644985  1.46123831
   0.00016750  2.84369090  0.05025735
   0.06745319  2.83116867  8.51189943
   1.42956535  4.23957801  1.47893456
   4.27453804  4.23966298  1.46430566
   7.11541328  4.26838284  1.47114821
   0.00997773  5.67472127  0.04435860
   8.48655045  5.63981786  8.50939138
   1.43237747  7.09176591  1.46949656
   2.85273255  5.66443990  0.05308875
   2.90528564  5.63637603  8.53203846
   4.27888553  7.10034788  1.46690111
   5.69548653  5.66792367  0.04129125
   5.66313766  5.77168010  8.52509139
   7.10670739  7.10213225  1.47114821
   0.01032406  0.00832706  2.88448867
   1.42487353  1.42843062  4.30349192
   2.85589337  0.01928819  2.87670232
   4.28110988  1.42035847  4.30915472
   7.11797691  1.41381578  4.31387372
   1.44722818  4.23728382  4.29641342
   4.28477632  4.25538243  4.32189602
   5.69463560  2.83757306  2.88637627
   7.09331349  4.26999727  4.31387372
   0.01091628  5.67557097  2.89109527
   1.44142189  7.09575950  4.30443572
   2.85350029  5.66775373  2.88401677
   4.26344147  7.09822363  4.31269397
   5.69079285  5.67939462  2.89251097
   7.12334709  7.08675268  4.31646917
   2.86288471  8.48535884  5.74609018
   5.69975591  2.82627205  5.71683238
   0.03787990  5.67081265  5.71400098
   4.22809414  7.08691527  7.10690273
   5.67568732  5.72281428  5.73995548
   5.68396679  8.46980933  0.00000000
   5.69826543  8.41020957  8.57398308
   2.83379213  2.83680833  0.03185325
   2.76915357  2.82579539  8.59685339
   5.72014693  2.86119472  0.07573995
   5.69318046  8.49682978  2.88944362
   8.51597220  2.84607006  2.88684817
   2.87321397  2.82423277  2.89298287
   5.73730989  2.90405169  9.28638964
 


--------------------------------------------------------------------------------------------------------


 k-point   1 :   0.0000 0.0000 0.0000  plane waves:   37053
 k-point   2 :   0.2500 0.0000 0.0000  plane waves:   37082
 k-point   3 :   0.5000 0.0000 0.0000  plane waves:   37122
 k-point   4 :   0.0000 0.2500 0.0000  plane waves:   37091
 k-point   5 :   0.2500 0.2500 0.0000  plane waves:   37070
 k-point   6 :   0.5000 0.2500 0.0000  plane waves:   37050
 k-point   7 :  -0.2500 0.2500 0.0000  plane waves:   37068
 k-point   8 :   0.0000 0.5000 0.0000  plane waves:   37118
 k-point   9 :   0.2500 0.5000 0.0000  plane waves:   37056
 k-point  10 :   0.5000 0.5000 0.0000  plane waves:   37124

 maximum and minimum number of plane-waves per node :     37124    37050

 maximum number of plane-waves:     37124
 maximum index in each direction: 
   IXMAX=   15   IYMAX=   14   IZMAX=   40
   IXMIN=  -15   IYMIN=  -15   IZMIN=  -40


 serial   3D FFT for wavefunctions
 parallel 3D FFT for charge:
    minimum data exchange during FFTs selected (reduces bandwidth)


 total amount of memory used by VASP MPI-rank0  2077438. kBytes
=======================================================================

   base      :      30000. kBytes
   nonlr-proj:      48340. kBytes
   fftplans  :     165536. kBytes
   grid      :     476352. kBytes
   one-center:       1959. kBytes
   wavefun   :    1355251. kBytes
 
     INWAV:  cpu time     24.3123: real time     13.9188
 initial charge density was supplied:
 number of electron     562.0000248 magnetization     107.4061533
 keeping initial charge density in first step


--------------------------------------------------------------------------------------------------------


 Maximum index for non-local projection operator         4950
 Maximum index for augmentation-charges        18220 (set IRDMAX)


--------------------------------------------------------------------------------------------------------


 First call to EWALD:  gamma=   0.148
 Maximum number of real-space cells 4x 4x 2
 Maximum number of reciprocal cells 2x 2x 5

    FEWALD:  cpu time      0.0127: real time      0.0064


--------------------------------------- Iteration      1(   1)  ---------------------------------------


    POTLOK:  cpu time     19.4367: real time      5.2800
    SETDIJ:  cpu time      2.7400: real time      0.5048
     EDDAV:  cpu time    146.7002: real time     21.4774
       DOS:  cpu time      0.1263: real time      0.0197
    --------------------------------------------
      LOOP:  cpu time    169.0041: real time     27.2821

 eigenvalue-minimisations  : 19184
 total energy-change (2. order) :-0.5047983E+03  (-0.2672279E-01)
 number of electron     562.0000248 magnetization     107.4061533
 augmentation part      562.0000248 magnetization     107.4061533

 DIPCOR: dipole corrections for dipol
 direction  3 min pos   231,
 dipolmoment           0.000000      0.000000      0.062629 electrons x Angstroem
 Tr[quadrupol]     -7046.293247

 energy correction for charged system         0.000000 eV
 dipol+quadrupol energy correction           -0.000207 eV
 added-field ion interaction         -0.053653 eV  (added to PSCEN)


 Free energy of the ion-electron system (eV)
  ---------------------------------------------------
  alpha Z        PSCENC =      1801.18643192
  Ewald energy   TEWEN  =    210413.12978981
  -Hartree energ DENC   =   -260650.40036454
  -exchange      EXHF   =         0.00000000
  -V(xc)+E(xc)   XCENC  =       950.19387433
  PAW double counting   =     54628.36324591   -55709.56329684
  entropy T*S    EENTRO =         0.00183753
  eigenvalues    EBANDS =     -4143.38749914
  atomic energy  EATOM  =     52205.67765473
  Solvation  Ediel_sol  =         0.00000000
  ---------------------------------------------------
  free energy    TOTEN  =      -504.79832630 eV

  energy without entropy =     -504.80016383  energy(sigma->0) =     -504.79893881


--------------------------------------------------------------------------------------------------------




--------------------------------------- Iteration      1(   2)  ---------------------------------------


     EDDAV:  cpu time    151.4452: real time     21.7336
       DOS:  cpu time      0.0957: real time      0.0147
    --------------------------------------------
      LOOP:  cpu time    151.5405: real time     21.7482

 eigenvalue-minimisations  : 19976
 total energy-change (2. order) :-0.3393335E-02  (-0.3393324E-02)
 number of electron     562.0000248 magnetization     107.4061533
 augmentation part      562.0000248 magnetization     107.4061533

 DIPCOR: dipole corrections for dipol
 direction  3 min pos   231,
 dipolmoment           0.000000      0.000000      0.062629 electrons x Angstroem
 Tr[quadrupol]     -7046.293247

 energy correction for charged system         0.000000 eV
 dipol+quadrupol energy correction           -0.000207 eV
 added-field ion interaction         -0.053653 eV  (added to PSCEN)


 Free energy of the ion-electron system (eV)
  ---------------------------------------------------
  alpha Z        PSCENC =      1801.18643192
  Ewald energy   TEWEN  =    210413.12978981
  -Hartree energ DENC   =   -260650.40036454
  -exchange      EXHF   =         0.00000000
  -V(xc)+E(xc)   XCENC  =       950.19387433
  PAW double counting   =     54628.36324591   -55709.56329684
  entropy T*S    EENTRO =         0.00183713
  eigenvalues    EBANDS =     -4143.39089207
  atomic energy  EATOM  =     52205.67765473
  Solvation  Ediel_sol  =         0.00000000
  ---------------------------------------------------
  free energy    TOTEN  =      -504.80171963 eV

  energy without entropy =     -504.80355676  energy(sigma->0) =     -504.80233201


--------------------------------------------------------------------------------------------------------




--------------------------------------- Iteration      1(   3)  ---------------------------------------


     EDDAV:  cpu time    171.9860: real time     24.8837
       DOS:  cpu time      0.1086: real time      0.0168
    --------------------------------------------
      LOOP:  cpu time    172.0946: real time     24.9005

 eigenvalue-minimisations  : 23664
 total energy-change (2. order) :-0.2062744E-03  (-0.2062732E-03)
 number of electron     562.0000248 magnetization     107.4061533
 augmentation part      562.0000248 magnetization     107.4061533

 DIPCOR: dipole corrections for dipol
 direction  3 min pos   231,
 dipolmoment           0.000000      0.000000      0.062629 electrons x Angstroem
 Tr[quadrupol]     -7046.293247

 energy correction for charged system         0.000000 eV
 dipol+quadrupol energy correction           -0.000207 eV
 added-field ion interaction         -0.053653 eV  (added to PSCEN)


 Free energy of the ion-electron system (eV)
  ---------------------------------------------------
  alpha Z        PSCENC =      1801.18643192
  Ewald energy   TEWEN  =    210413.12978981
  -Hartree energ DENC   =   -260650.40036454
  -exchange      EXHF   =         0.00000000
  -V(xc)+E(xc)   XCENC  =       950.19387433
  PAW double counting   =     54628.36324591   -55709.56329684
  entropy T*S    EENTRO =         0.00183739
  eigenvalues    EBANDS =     -4143.39109861
  atomic energy  EATOM  =     52205.67765473
  Solvation  Ediel_sol  =         0.00000000
  ---------------------------------------------------
  free energy    TOTEN  =      -504.80192591 eV

  energy without entropy =     -504.80376329  energy(sigma->0) =     -504.80253837


--------------------------------------------------------------------------------------------------------




--------------------------------------- Iteration      1(   4)  ---------------------------------------


     EDDAV:  cpu time    144.4807: real time     21.6783
       DOS:  cpu time      0.1399: real time      0.0221
    --------------------------------------------
      LOOP:  cpu time    144.6206: real time     21.7004

 eigenvalue-minimisations  : 20216
 total energy-change (2. order) :-0.4899252E-05  (-0.4899229E-05)
 number of electron     562.0000248 magnetization     107.4061533
 augmentation part      562.0000248 magnetization     107.4061533

 DIPCOR: dipole corrections for dipol
 direction  3 min pos   231,
 dipolmoment           0.000000      0.000000      0.062629 electrons x Angstroem
 Tr[quadrupol]     -7046.293247

 energy correction for charged system         0.000000 eV
 dipol+quadrupol energy correction           -0.000207 eV
 added-field ion interaction         -0.053653 eV  (added to PSCEN)


 Free energy of the ion-electron system (eV)
  ---------------------------------------------------
  alpha Z        PSCENC =      1801.18643192
  Ewald energy   TEWEN  =    210413.12978981
  -Hartree energ DENC   =   -260650.40036454
  -exchange      EXHF   =         0.00000000
  -V(xc)+E(xc)   XCENC  =       950.19387433
  PAW double counting   =     54628.36324591   -55709.56329684
  entropy T*S    EENTRO =         0.00183741
  eigenvalues    EBANDS =     -4143.39110354
  atomic energy  EATOM  =     52205.67765473
  Solvation  Ediel_sol  =         0.00000000
  ---------------------------------------------------
  free energy    TOTEN  =      -504.80193080 eV

  energy without entropy =     -504.80376822  energy(sigma->0) =     -504.80254328


--------------------------------------------------------------------------------------------------------




--------------------------------------- Iteration      1(   5)  ---------------------------------------


     EDDAV:  cpu time     71.8368: real time     15.2390
       DOS:  cpu time      0.0539: real time      0.0077
    --------------------------------------------
      LOOP:  cpu time     71.8907: real time     15.2467

 eigenvalue-minimisations  : 12320
 total energy-change (2. order) :-0.3013702E-06  (-0.3014508E-06)
 number of electron     562.0000248 magnetization     107.4061533
 augmentation part      562.0000248 magnetization     107.4061533

 DIPCOR: dipole corrections for dipol
 direction  3 min pos   231,
 dipolmoment           0.000000      0.000000      0.062629 electrons x Angstroem
 Tr[quadrupol]     -7046.293247

 energy correction for charged system         0.000000 eV
 dipol+quadrupol energy correction           -0.000207 eV
 added-field ion interaction         -0.053653 eV  (added to PSCEN)


 Free energy of the ion-electron system (eV)
  ---------------------------------------------------
  alpha Z        PSCENC =      1801.18643192
  Ewald energy   TEWEN  =    210413.12978981
  -Hartree energ DENC   =   -260650.40036454
  -exchange      EXHF   =         0.00000000
  -V(xc)+E(xc)   XCENC  =       950.19387433
  PAW double counting   =     54628.36324591   -55709.56329684
  entropy T*S    EENTRO =         0.00183742
  eigenvalues    EBANDS =     -4143.39110384
  atomic energy  EATOM  =     52205.67765473
  Solvation  Ediel_sol  =         0.00000000
  ---------------------------------------------------
  free energy    TOTEN  =      -504.80193111 eV

  energy without entropy =     -504.80376853  energy(sigma->0) =     -504.80254358


--------------------------------------------------------------------------------------------------------




 average (electrostatic) potential at core
  the test charge radii are     1.0103  1.0025  1.1541
  (the norm of the test charge is              1.0000)
       1 -48.4265       2 -48.4113       3 -48.5323       4 -48.4772       5 -48.4253
       6 -48.4732       7 -48.4307       8 -48.4815       9 -48.4626      10 -48.4908
      11 -48.3800      12 -48.4305      13 -48.5035      14 -48.5912      15 -48.5189
      16 -48.3784      17 -48.6137      18 -48.4475      19 -48.3079      20 -48.3427
      21 -48.6151      22 -48.4882      23 -48.3593      24 -48.2738      25 -48.3217
      26 -48.5464      27 -48.5779      28 -48.2153      29 -48.5964      30 -48.4876
      31 -48.2931      32 -48.6110      33 -48.5015      34 -48.3018      35 -48.4323
      36 -48.5238      37 -48.4448      38 -48.5900      39 -48.5385      40 -48.5402
      41 -48.5293      42 -48.4957      43 -48.5964      44 -48.4312      45 -48.4270
      46 -48.4132      47 -48.5273      48 -48.4513      49 -48.5318      50 -76.1051
      51 -76.1426      52 -76.2155      53 -75.5320      54 -76.0741      55 -74.9115
      56 -75.4390      57 -74.9708      58 -75.4229      59 -75.2129      60 -76.1964
      61 -76.1791      62 -76.1830      63 -96.0627
 
 
 
 E-fermi :   0.9805     XC(G=0):  -6.5821     alpha+bet : -6.3882

 Fermi energy:         0.9805029297

 spin component 1

 k-point     1 :       0.0000    0.0000    0.0000
  band No.  band energies     occupation 
      1     -42.8022      1.00000
      2     -42.7875      1.00000
      3     -42.7700      1.00000
      4     -42.7618      1.00000
      5     -42.7419      1.00000
      6     -42.7206      1.00000
      7     -42.7056      1.00000
      8     -42.6972      1.00000
      9     -42.6911      1.00000
     10     -42.3174      1.00000
     11     -42.2392      1.00000
     12     -42.1920      1.00000
     13     -41.9576      1.00000
     14     -41.9310      1.00000
     15     -41.9235      1.00000
     16     -41.9066      1.00000
     17     -41.8611      1.00000
     18     -41.8359      1.00000
     19     -41.8301      1.00000
     20     -41.8271      1.00000
     21     -41.8234      1.00000
     22     -41.8046      1.00000
     23     -41.7852      1.00000
     24     -41.7838      1.00000
     25     -41.7837      1.00000
     26     -41.7674      1.00000
     27     -41.7545      1.00000
     28     -41.7462      1.00000
     29     -41.7365      1.00000
     30     -41.7219      1.00000
     31     -41.7188      1.00000
     32     -41.7079      1.00000
     33     -41.6935      1.00000
     34     -40.3446      1.00000
     35     -40.2997      1.00000
     36     -40.2117      1.00000
     37     -40.2051      1.00000
     38     -40.1923      1.00000
     39     -40.0666      1.00000
     40     -15.5295      1.00000
     41     -15.5203      1.00000
     42     -15.5186      1.00000
     43     -15.5072      1.00000
     44     -15.4854      1.00000
     45      -7.8955      1.00000
     46      -7.1428      1.00000
     47      -6.1204      1.00000
     48      -5.2894      1.00000
     49      -5.2214      1.00000
     50      -5.2152      1.00000
     51      -5.1870      1.00000
     52      -4.8794      1.00000
     53      -4.6489      1.00000
     54      -4.6061      1.00000
     55      -4.5745      1.00000
     56      -4.4832      1.00000
     57      -4.1351      1.00000
     58      -4.1327      1.00000
     59      -4.1056      1.00000
     60      -4.0976      1.00000
     61      -4.0722      1.00000
     62      -4.0492      1.00000
     63      -4.0286      1.00000
     64      -3.9598      1.00000
     65      -3.8160      1.00000
     66      -3.7931      1.00000
     67      -3.7271      1.00000
     68      -3.6595      1.00000
     69      -3.6418      1.00000
     70      -3.5911      1.00000
     71      -3.5273      1.00000
     72      -3.4575      1.00000
     73      -3.4270      1.00000
     74      -3.4114      1.00000
     75      -3.3973      1.00000
     76      -3.3903      1.00000
     77      -3.3728      1.00000
     78      -3.3546      1.00000
     79      -3.3428      1.00000
     80      -3.3231      1.00000
     81      -3.3095      1.00000
     82      -3.2942      1.00000
     83      -3.2735      1.00000
     84      -3.2598      1.00000
     85      -3.2533      1.00000
     86      -3.2122      1.00000
     87      -3.2067      1.00000
     88      -3.1997      1.00000
     89      -3.1768      1.00000
     90      -3.1375      1.00000
     91      -3.1250      1.00000
     92      -3.1099      1.00000
     93      -2.9963      1.00000
     94      -2.9721      1.00000
     95      -2.9609      1.00000
     96      -2.9455      1.00000
     97      -2.9382      1.00000
     98      -2.9235      1.00000
     99      -2.9037      1.00000
    100      -2.8901      1.00000
    101      -2.8803      1.00000
    102      -2.8593      1.00000
    103      -2.8485      1.00000
    104      -2.8432      1.00000
    105      -2.8373      1.00000
    106      -2.7644      1.00000
    107      -2.7308      1.00000
    108      -2.7167      1.00000
    109      -2.6849      1.00000
    110      -2.6464      1.00000
    111      -2.6205      1.00000
    112      -2.6103      1.00000
    113      -2.5962      1.00000
    114      -2.5736      1.00000
    115      -2.5671      1.00000
    116      -2.5609      1.00000
    117      -2.5551      1.00000
    118      -2.5479      1.00000
    119      -2.5375      1.00000
    120      -2.5250      1.00000
    121      -2.5161      1.00000
    122      -2.5131      1.00000
    123      -2.4954      1.00000
    124      -2.4873      1.00000
    125      -2.4807      1.00000
    126      -2.4697      1.00000
    127      -2.4630      1.00000
    128      -2.4571      1.00000
    129      -2.4474      1.00000
    130      -2.4250      1.00000
    131      -2.4115      1.00000
    132      -2.3950      1.00000
    133      -2.3887      1.00000
    134      -2.3804      1.00000
    135      -2.3672      1.00000
    136      -2.3571      1.00000
    137      -2.3523      1.00000
    138      -2.3288      1.00000
    139      -2.3257      1.00000
    140      -2.3026      1.00000
    141      -2.2942      1.00000
    142      -2.2863      1.00000
    143      -2.2684      1.00000
    144      -2.2386      1.00000
    145      -2.2353      1.00000
    146      -2.2338      1.00000
    147      -2.2221      1.00000
    148      -2.2028      1.00000
    149      -2.1932      1.00000
    150      -2.1917      1.00000
    151      -2.1693      1.00000
    152      -2.1476      1.00000
    153      -2.1303      1.00000
    154      -2.1230      1.00000
    155      -2.1101      1.00000
    156      -2.0935      1.00000
    157      -2.0814      1.00000
    158      -2.0657      1.00000
    159      -2.0476      1.00000
    160      -2.0396      1.00000
    161      -2.0252      1.00000
    162      -2.0228      1.00000
    163      -2.0120      1.00000
    164      -1.9860      1.00000
    165      -1.9591      1.00000
    166      -1.9494      1.00000
    167      -1.9352      1.00000
    168      -1.9165      1.00000
    169      -1.9098      1.00000
    170      -1.8968      1.00000
    171      -1.8903      1.00000
    172      -1.8778      1.00000
    173      -1.8701      1.00000
    174      -1.8421      1.00000
    175      -1.8359      1.00000
    176      -1.8185      1.00000
    177      -1.8128      1.00000
    178      -1.8085      1.00000
    179      -1.7916      1.00000
    180      -1.7835      1.00000
    181      -1.7418      1.00000
    182      -1.7123      1.00000
    183      -1.7030      1.00000
    184      -1.6956      1.00000
    185      -1.6806      1.00000
    186      -1.6622      1.00000
    187      -1.6423      1.00000
    188      -1.6115      1.00000
    189      -1.6080      1.00000
    190      -1.5991      1.00000
    191      -1.5644      1.00000
    192      -1.5456      1.00000
    193      -1.5280      1.00000
    194      -1.5140      1.00000
    195      -1.4930      1.00000
    196      -1.4677      1.00000
    197      -1.4626      1.00000
    198      -1.4506      1.00000
    199      -1.4385      1.00000
    200      -1.4085      1.00000
    201      -1.4025      1.00000
    202      -1.3807      1.00000
    203      -1.3579      1.00000
    204      -1.3515      1.00000
    205      -1.3407      1.00000
    206      -1.3101      1.00000
    207      -1.3034      1.00000
    208      -1.2682      1.00000
    209      -1.2568      1.00000
    210      -1.2461      1.00000
    211      -1.2336      1.00000
    212      -1.2024      1.00000
    213      -1.1876      1.00000
    214      -1.1700      1.00000
    215      -1.1468      1.00000
    216      -1.1230      1.00000
    217      -1.1018      1.00000
    218      -1.0857      1.00000
    219      -1.0762      1.00000
    220      -1.0658      1.00000
    221      -1.0498      1.00000
    222      -1.0296      1.00000
    223      -1.0108      1.00000
    224      -1.0027      1.00000
    225      -0.9868      1.00000
    226      -0.9736      1.00000
    227      -0.9469      1.00000
    228      -0.9336      1.00000
    229      -0.9058      1.00000
    230      -0.8857      1.00000
    231      -0.8723      1.00000
    232      -0.8665      1.00000
    233      -0.8295      1.00000
    234      -0.8131      1.00000
    235      -0.7866      1.00000
    236      -0.7699      1.00000
    237      -0.7540      1.00000
    238      -0.7440      1.00000
    239      -0.7322      1.00000
    240      -0.7151      1.00000
    241      -0.6995      1.00000
    242      -0.6796      1.00000
    243      -0.6532      1.00000
    244      -0.6416      1.00000
    245      -0.6245      1.00000
    246      -0.6218      1.00000
    247      -0.6087      1.00000
    248      -0.5967      1.00000
    249      -0.5846      1.00000
    250      -0.5481      1.00000
    251      -0.5469      1.00000
    252      -0.5323      1.00000
    253      -0.5168      1.00000
    254      -0.5102      1.00000
    255      -0.4947      1.00000
    256      -0.4746      1.00000
    257      -0.4685      1.00000
    258      -0.4610      1.00000
    259      -0.4527      1.00000
    260      -0.4269      1.00000
    261      -0.4186      1.00000
    262      -0.4084      1.00000
    263      -0.4059      1.00000
    264      -0.3963      1.00000
    265      -0.3810      1.00000
    266      -0.3725      1.00000
    267      -0.3644      1.00000
    268      -0.3557      1.00000
    269      -0.3472      1.00000
    270      -0.3369      1.00000
    271      -0.3314      1.00000
    272      -0.3150      1.00000
    273      -0.3105      1.00000
    274      -0.3006      1.00000
    275      -0.2791      1.00000
    276      -0.2673      1.00000
    277      -0.2617      1.00000
    278      -0.2542      1.00000
    279      -0.2425      1.00000
    280      -0.2280      1.00000
    281      -0.2210      1.00000
    282      -0.2149      1.00000
    283      -0.2062      1.00000
    284      -0.1858      1.00000
    285      -0.1828      1.00000
    286      -0.1723      1.00000
    287      -0.1542      1.00000
[...]
   95        m_sumb_d                              0.000511                           10   3
   96        densta                                0.036952                            5   3
   97          m_sumb_d                              0.000804                        200   4
   98        m_bcast_z                             0.000059                            1   3
   99      rotate_active_occupied_orbital        0.000006                              1   2
  100      sphpro_fast                           6.628962                              2   2
  101        m_sumb_d                              0.018533                            5   3
  102      force_and_stress                     25.062421                              1   2
  103        set_charge                            0.807009                            1   3
  104          soft_charge                           0.516401                          1   4
  105            fftwav_mpi                            0.028752                     2214   5
  106              fftwav                                0.026044                   2214   6
  107                fft3d                                 0.015650                 2214   7
  108            pw_charge                             0.004832                     2214   5
  109            m_sumb_d                              0.464649                        2   5
  110            fft_gq                                0.009689                        1   5
  111              fft3d_mpi                             0.008908                      2   6
  112                fftbrc_mpi                            0.004088                    2   7
  113                  fftbas_plan_mpi                       0.004086                  2   8
  114                    dfftw_execute                         0.002874                6   9
  115                    map_backward                          0.000983                4   9
  116                      map_gather                            0.000654              2  10
  117          depsum                                0.030010                          1   4
  118            m_sumb_d                              0.001201                        1   5
  119          augmentation_charge                   0.247539                          1   4
  120            fft3d_mpi                             0.055145                        2   5
  121              fftbrc_mpi                            0.045289                      2   6
  122                fftbas_plan_mpi                       0.045287                    2   7
  123                  dfftw_execute                         0.028422                  6   8
  124                  map_backward                          0.016624                  4   8
  125                    map_gather                            0.010666                2   9
  126        forloc                                0.182305                            1   3
  127        fornlr                                3.280066                            1   3
  128          rspher_all                            0.174508                          3   4
  129          phaser                                0.137089                          9   4
  130          rpro_isp                              2.898680                          9   4
  131            fftwav_mpi                            0.159962                     6642   5
  132              fftwav                                0.150872                   6642   6
  133                fft3d                                 0.092862                 6642   7
  134            rpromu_acc                            2.726259                     1674   5
  135          m_sumb_d                              0.018874                          1   4
  136        fordep                                1.191675                            1   3
  137          setdij_                               1.191451                          6   4
  138        setdij_                               3.972126                           20   3
  139        set_dd_magatom                        0.000005                            1   3
  140        set_dd_paw                            0.093195                            1   3
  141          m_sumb_d                              0.017403                          7   4
  142        strkin                                0.093775                            1   3
  143          m_sumb_d                              0.003459                          1   4
  144        strelo                                0.018438                            1   3
  145        strnlr                                9.780497                            1   3
  146          rspher_all                            0.517485                          9   4
  147          phaser                                0.410213                         27   4
  148          rpro_isp                              8.677832                         27   4
  149            fftwav_mpi                            0.488276                    19926   5
  150              fftwav                                0.460912                  19926   6
  151                fft3d                                 0.283009                19926   7
  152            rpromu_acc                            8.152717                     5022   5
  153          m_sumb_d                              0.021297                          9   4
  154        fft3d_mpi                             0.612257                           22   3
  155          fftbrc_mpi                            0.504799                         22   4
  156            fftbas_plan_mpi                       0.504769                       22   5
  157              dfftw_execute                         0.320649                     66   6
  158              map_forward                           0.082391                     20   6
  159                map_scatter                           0.044947                   10   7
  160              map_backward                          0.099377                     24   6
  161                map_gather                            0.063978                   12   7
  162        forhar                                0.362632                            2   3
  163        strehar                               0.011260                            1   3
  164        chggra                                0.175969                            1   3
  165          fft3d_mpi                             0.168199                          3   4
  166            fftbrc_mpi                            0.165764                        3   5
  167              fftbas_plan_mpi                       0.165760                      3   6
  168                map_forward                           0.000057                    4   7
  169                  map_scatter                           0.000007                  2   8
  170                map_backward                          0.000011                    2   7
  171                  map_gather                            0.000003                  1   8
  172          pothar                                0.000957                          1   4
  173        m_bcast_d                             0.008385                            2   3
  174      potlok                                5.214863                              1   2
  175        fft3d_mpi                             0.665036                           26   3
  176          fftbrc_mpi                            0.542517                         26   4
  177            fftbas_plan_mpi                       0.542481                       26   5
  178              dfftw_execute                         0.342505                     78   6
  179              map_forward                           0.098585                     28   6
  180                map_scatter                           0.053679                   14   7
  181              map_backward                          0.098872                     24   6
  182                map_gather                            0.063402                   12   7
  183        fewald                                0.000086                            2   3
  184          rsp                                   0.000055                          2   4
  185          rcp                                   0.000026                          2   4
  186        pothar                                0.029600                            1   3
  187      potlok_metagga                        0.000001                              1   2
  188      set_dd_magatom                        0.000005                              1   2
  189      set_dd_paw                            0.237278                              1   2
  190        m_sumb_d                              0.161463                            7   3
  191      densta                                0.049784                              1   2
  192        m_sumb_d                              0.006163                           42   3
  193      m_sumb_d                              0.001506                              1   2
 
 Flat profile
 ============
 
             routine name                   CPU           calls
 ---------------------------------------------------------------
 total_time                             90.591019           1
 eddav                                  72.364264           5
 rpromu_acc                             17.998471       10946
 potlok                                  9.091526           2
 sphpro_fast                             6.610429           2
 hamiltmu                                6.546474        5102
 setdij_                                 5.800578          29
 lapack                                  5.683291        5102
 m_bcast_z                               5.112436        7391
 force_and_stress                        4.472827           1
 orth1                                   3.902023       15312
 racc0mu_acc                             3.899933        5102
 fft3d                                   2.193660      139224
 newband                                 2.147782        5132
 fftbas_plan_mpi                         1.711325          88
 raccmu_                                 1.658927        5102
 dfftw_execute                           1.341902         255
 phaser                                  1.070533          69
 fftwav                                  1.061642       99458
 w1_copy                                 1.002517      119298
 m_sumb_d                                0.897238         308
 rspher_all                              0.757528          14
 init_hip                                0.745423           1
 choleski                                0.562492           6
 overl                                   0.503219       68468
 elmin                                   0.482740           1
 overl_mu                                0.431781        5102
 fft3d_mpi                               0.427657       39854
 lincom                                  0.397440          36
 forhar                                  0.362632           2
 stufak                                  0.352907           2
 proall                                  0.307493           1
 ggemm                                   0.281658        6512
 set_dd_paw                              0.261705           3
 orthch                                  0.258765           1
 eccp                                    0.239162       11070
 map_gather                              0.214316          43
 augmentation_charge                     0.192394           1
 forloc                                  0.182305           1
 map_scatter                             0.176220          45
 kinhamil                                0.174480       39766
 fftext_mpi                              0.173147       39766
 strnlr                                  0.153670           1
 map_forward                             0.146238          90
 fftwav_mpi                              0.145416       99458
 vhamil                                  0.128998       39766
 map_backward                            0.118405          86
 apply_precond                           0.095503       28696
 strkin                                  0.090316           1
 densta                                  0.079770           6
 setup_precond                           0.078649       11070
 pothar                                  0.060172           3
 rpro_isp                                0.052688          39
 fornlr                                  0.050915           1
 depsum                                  0.028809           1
 strelo                                  0.018438           1
 set_charge                              0.013059           1
 inisym                                  0.011806           1
 strehar                                 0.011260           1
 m_bcast_d                               0.008713           9
 soft_charge                             0.008479           1
 truncate_high_frequency_w1              0.006847       50836
 chggra                                  0.006813           1
 pw_charge                               0.004832        2214
 w1_projall                              0.004600        3692
 rsp                                     0.004296           5
 hip_hipfft_makeplan                     0.002620           6
 fewald                                  0.001571           5
 fft_gq                                  0.000781           1
 rcp                                     0.000380           5
 fordep                                  0.000224           1
 hip_init_hipblas                        0.000202           1
 fftbrc_mpi                              0.000122          88
 hip_init_rocsolver                      0.000068           1
 crpa_reader                             0.000062           1
 set_dd_magatom                          0.000027           3
 vectorpot                               0.000022           2
 posmap                                  0.000016           2
 rotate_active_occupied_orbital          0.000006           1
 potlok_metagga                          0.000005           2
 redis_pw_over_bands                     0.000001           1
 hip_hipfft_makeplans                    0.000000           3
 ---------------------------------------------------------------
  summed up times    253.979058027267     
 
 Accumulative profile
 ====================
 
             routine name                   CPU           calls
 ---------------------------------------------------------------
 total_time                            253.979058           1
 elmin                                 111.272316           1
 eddav                                 104.993845           5
 force_and_stress                       25.062421           1
 rpromu_acc                             17.998471       10946
 hamiltmu                               13.516673        5102
 rpro_isp                               13.218991          39
 potlok                                 10.483229           2
 strnlr                                  9.780497           1
 sphpro_fast                             6.628962           2
 w1_projall                              6.195275        3692
 raccmu_                                 5.990641        5102
 setdij_                                 5.800578          29
 lapack                                  5.683291        5102
 m_bcast_z                               5.112436        7391
 fft3d_mpi                               4.618493       39854
 orthch                                  4.249375           1
 orth1                                   3.902023       15312
 racc0mu_acc                             3.899933        5102
 fftbrc_mpi                              3.708529          88
 fftbas_plan_mpi                         3.708406          88
 fornlr                                  3.280066           1
 fftwav_mpi                              2.918410       99458
 newband                                 2.906268        5132
 fftwav                                  2.772993       99458
 fft3d                                   2.193660      139224
 proall                                  1.997151           1
 dfftw_execute                           1.341902         255
 fordep                                  1.191675           1
 phaser                                  1.070533          69
 w1_copy                                 1.002517      119298
 m_sumb_d                                0.897238         308
 kinhamil                                0.850560       39766
 set_charge                              0.807009           1
 rspher_all                              0.757528          14
 init_hip                                0.745423           1
 fftext_mpi                              0.676080       39766
 set_dd_paw                              0.621570           3
 choleski                                0.562492           6
 soft_charge                             0.516401           1
 overl                                   0.503219       68468
 overl_mu                                0.431781        5102
 lincom                                  0.397440          36
 forhar                                  0.362632           2
 stufak                                  0.352907           2
 map_backward                            0.332721          86
 map_forward                             0.322458          90
 ggemm                                   0.281658        6512
 augmentation_charge                     0.247539           1
 eccp                                    0.239162       11070
 map_gather                              0.214316          43
 forloc                                  0.182305           1
 map_scatter                             0.176220          45
 chggra                                  0.175969           1
 vhamil                                  0.128998       39766
 apply_precond                           0.095503       28696
 strkin                                  0.093775           1
 densta                                  0.086736           6
 setup_precond                           0.078649       11070
 pothar                                  0.060172           3
 depsum                                  0.030010           1
 strelo                                  0.018438           1
 inisym                                  0.011822           1
 strehar                                 0.011260           1
 fft_gq                                  0.009689           1
 m_bcast_d                               0.008713           9
 truncate_high_frequency_w1              0.006847       50836
 fewald                                  0.006495           5
 pw_charge                               0.004832        2214
 rsp                                     0.004296           5
 hip_hipfft_makeplan                     0.002620           6
 hip_hipfft_makeplans                    0.002620           3
 rcp                                     0.000380           5
 hip_init_hipblas                        0.000202           1
 hip_init_rocsolver                      0.000068           1
 crpa_reader                             0.000062           1
 set_dd_magatom                          0.000027           3
 vectorpot                               0.000022           2
 posmap                                  0.000016           2
 rotate_active_occupied_orbital          0.000006           1
 potlok_metagga                          0.000005           2
 redis_pw_over_bands                     0.000001           1
 ---------------------------------------------------------------
 
Profiling took   0.237083  0.095226  0.002915  0.002740 seconds
Profiling took   0.168340 seconds
