   64   64    1    2
  0.2672958E+02  0.8532700E-09  0.8497000E-09  0.2359500E-08  0.1000000E-16
  1.000000000000000E-004
  CAR 
 Fe2O3                                   
    574     10    376
 
  0.0000000E+00  0.0000000E+00  0.0000000E+00  0.6250000E-01
      1        -42.729999      -43.232084   1.000000   1.000000
      2        -42.714546      -43.217342   1.000000   1.000000
      3        -42.702408      -43.194929   1.000000   1.000000
      4        -42.691607      -43.162725   1.000000   1.000000
      5        -42.669910      -43.162053   1.000000   1.000000
      6        -42.648764      -43.130984   1.000000   1.000000
      7        -42.648280      -43.127716   1.000000   1.000000
      8        -42.627085      -43.111440   1.000000   1.000000
      9        -42.624621      -43.091711   1.000000   1.000000
     10        -42.618271      -43.081864   1.000000   1.000000
     11        -42.604173      -43.077857   1.000000   1.000000
     12        -42.597095      -43.077693   1.000000   1.000000
     13        -42.215063      -43.063161   1.000000   1.000000
     14        -42.132728      -43.062223   1.000000   1.000000
     15        -42.068203      -43.052260   1.000000   1.000000
     16        -41.912126      -43.049180   1.000000   1.000000
     17        -41.901372      -43.021715   1.000000   1.000000
     18        -41.896059      -43.014095   1.000000   1.000000
     19        -41.871653      -43.012877   1.000000   1.000000
     20        -41.821699      -42.984398   1.000000   1.000000
     21        -41.796620      -42.972465   1.000000   1.000000
     22        -41.783173      -42.760722   1.000000   1.000000
     23        -41.759999      -42.741067   1.000000   1.000000
     24        -41.756516      -42.673184   1.000000   1.000000
     25        -41.729105      -42.653114   1.000000   1.000000
     26        -41.720735      -42.586447   1.000000   1.000000
     27        -41.710827      -42.553358   1.000000   1.000000
     28        -41.703217      -41.642523   1.000000   1.000000
     29        -41.687325      -41.526104   1.000000   1.000000
     30        -41.677822      -41.520436   1.000000   1.000000
     31        -41.668649      -40.382504   1.000000   1.000000
     32        -41.660417      -40.364043   1.000000   1.000000
     33        -41.649928      -40.067401   1.000000   1.000000
     34        -41.621689      -39.936684   1.000000   1.000000
     35        -41.619522      -39.846108   1.000000   1.000000
     36        -41.600164      -39.841117   1.000000   1.000000
     37        -40.227338      -39.717722   1.000000   1.000000
     38        -40.202591      -39.653830   1.000000   1.000000
     39        -40.124723      -39.563109   1.000000   1.000000
     40        -40.124546      -39.367970   1.000000   1.000000
     41        -40.103939      -39.355411   1.000000   1.000000
     42        -40.022978      -39.280587   1.000000   1.000000
     43        -15.411158      -15.446490   1.000000   1.000000
     44        -15.409386      -15.442385   1.000000   1.000000
     45        -15.407460      -15.435008   1.000000   1.000000
     46        -15.368023      -15.402563   1.000000   1.000000
     47        -15.360553      -15.398599   1.000000   1.000000
     48         -7.565210       -7.614053   1.000000   1.000000
     49         -7.102085       -7.015272   1.000000   1.000000
     50         -6.113434       -5.963836   1.000000   1.000000
     51         -5.214185       -5.015796   1.000000   1.000000
     52         -5.145268       -4.992279   1.000000   1.000000
     53         -5.132810       -4.973653   1.000000   1.000000
     54         -5.103667       -4.945973   1.000000   1.000000
     55         -4.817921       -4.551218   1.000000   1.000000
     56         -4.575996       -4.259010   1.000000   1.000000
     57         -4.530386       -4.237624   1.000000   1.000000
     58         -4.489596       -4.175393   1.000000   1.000000
     59         -4.462525       -4.107566   1.000000   1.000000
     60         -4.060589       -3.619858   1.000000   1.000000
     61         -4.039123       -3.606936   1.000000   1.000000
     62         -4.025685       -3.563866   1.000000   1.000000
     63         -4.008696       -3.504484   1.000000   1.000000
     64         -3.997687       -3.465898   1.000000   1.000000
     65         -3.969018       -3.445431   1.000000   1.000000
     66         -3.959018       -3.344585   1.000000   1.000000
     67         -3.928326       -3.295235   1.000000   1.000000
     68         -3.738675       -3.156136   1.000000   1.000000
     69         -3.710227       -2.834927   1.000000   1.000000
     70         -3.607383       -2.816497   1.000000   1.000000
     71         -3.572660       -2.784534   1.000000   1.000000
     72         -3.548077       -2.754654   1.000000   1.000000
     73         -3.517970       -2.741758   1.000000   1.000000
     74         -3.484955       -2.710347   1.000000   1.000000
     75         -3.364688       -2.668709   1.000000   1.000000
     76         -3.343618       -2.594785   1.000000   1.000000
     77         -3.325664       -2.572506   1.000000   1.000000
     78         -3.317620       -2.499741   1.000000   1.000000
     79         -3.298306       -2.330283   1.000000   1.000000
     80         -3.287905       -2.324210   1.000000   1.000000
     81         -3.265103       -2.284455   1.000000   1.000000
     82         -3.253045       -2.279185   1.000000   1.000000
     83         -3.236022       -2.255386   1.000000   1.000000
     84         -3.223782       -2.219729   1.000000   1.000000
     85         -3.205757       -2.183363   1.000000   1.000000
     86         -3.187742       -2.172200   1.000000   1.000000
     87         -3.175637       -2.157672   1.000000   1.000000
     88         -3.164966       -2.132495   1.000000   1.000000
     89         -3.139848       -2.078979   1.000000   1.000000
     90         -3.125456       -2.054656   1.000000   1.000000
     91         -3.121878       -2.032496   1.000000   1.000000
     92         -3.116089       -2.002826   1.000000   1.000000
     93         -3.061974       -1.974505   1.000000   1.000000
     94         -3.051682       -1.952239   1.000000   1.000000
     95         -3.033659       -1.942607   1.000000   1.000000
     96         -2.916711       -1.898520   1.000000   1.000000
     97         -2.891519       -1.885776   1.000000   1.000000
     98         -2.885778       -1.812904   1.000000   1.000000
     99         -2.872365       -1.743544   1.000000   1.000000
    100         -2.863971       -1.729321   1.000000   1.000000
    101         -2.838705       -1.692658   1.000000   1.000000
    102         -2.837257       -1.684145   1.000000   1.000000
    103         -2.808539       -1.669406   1.000000   1.000000
    104         -2.800860       -1.615612   1.000000   1.000000
    105         -2.770863       -1.572810   1.000000   1.000000
    106         -2.755178       -1.552299   1.000000   1.000000
    107         -2.749835       -1.527808   1.000000   1.000000
    108         -2.747664       -1.504297   1.000000   1.000000
    109         -2.732365       -1.479315   1.000000   1.000000
    110         -2.685185       -1.453692   1.000000   1.000000
    111         -2.655782       -1.448687   1.000000   1.000000
    112         -2.640052       -1.429536   1.000000   1.000000
    113         -2.589434       -1.398047   1.000000   1.000000
    114         -2.564289       -1.386463   1.000000   1.000000
    115         -2.524548       -1.365403   1.000000   1.000000
    116         -2.523638       -1.353217   1.000000   1.000000
    117         -2.509942       -1.325539   1.000000   1.000000
    118         -2.491703       -1.291468   1.000000   1.000000
    119         -2.469232       -1.275854   1.000000   1.000000
    120         -2.465591       -1.260121   1.000000   1.000000
    121         -2.457489       -1.247903   1.000000   1.000000
    122         -2.446211       -1.228315   1.000000   1.000000
    123         -2.429643       -1.214202   1.000000   1.000000
    124         -2.420892       -1.192616   1.000000   1.000000
    125         -2.420386       -1.153195   1.000000   1.000000
    126         -2.410385       -1.142634   1.000000   1.000000
    127         -2.405686       -1.120415   1.000000   1.000000
    128         -2.388972       -1.088258   1.000000   1.000000
    129         -2.387188       -1.086965   1.000000   1.000000
    130         -2.373762       -1.063226   1.000000   1.000000
    131         -2.364122       -1.044594   1.000000   1.000000
    132         -2.359288       -1.030900   1.000000   1.000000
    133         -2.343906       -1.004372   1.000000   1.000000
    134         -2.327529       -0.995582   1.000000   1.000000
    135         -2.311989       -0.974125   1.000000   1.000000
    136         -2.306924       -0.959841   1.000000   1.000000
    137         -2.302032       -0.939706   1.000000   1.000000
    138         -2.295940       -0.928927   1.000000   1.000000
    139         -2.281188       -0.905421   1.000000   1.000000
    140         -2.269644       -0.891141   1.000000   1.000000
    141         -2.262734       -0.884888   1.000000   1.000000
    142         -2.238981       -0.864053   1.000000   1.000000
    143         -2.234002       -0.839578   1.000000   1.000000
    144         -2.230899       -0.830450   1.000000   1.000000
    145         -2.206861       -0.820324   1.000000   1.000000
    146         -2.196771       -0.805094   1.000000   1.000000
    147         -2.183097       -0.777787   1.000000   1.000000
    148         -2.168825       -0.769820   1.000000   1.000000
    149         -2.155130       -0.753500   1.000000   1.000000
    150         -2.141138       -0.730443   1.000000   1.000000
    151         -2.123314       -0.713422   1.000000   1.000000
    152         -2.115379       -0.702737   1.000000   1.000000
    153         -2.109543       -0.677380   1.000000   1.000000
    154         -2.104196       -0.671478   1.000000   1.000000
    155         -2.066956       -0.655089   1.000000   1.000000
    156         -2.046953       -0.642017   1.000000   1.000000
    157         -2.040093       -0.616838   1.000000   1.000000
    158         -2.024300       -0.599761   1.000000   1.000000
    159         -2.014305       -0.585735   1.000000   1.000000
    160         -2.011329       -0.554314   1.000000   1.000000
    161         -1.982196       -0.547789   1.000000   1.000000
    162         -1.971042       -0.532201   1.000000   1.000000
    163         -1.966124       -0.500231   1.000000   1.000000
    164         -1.956007       -0.490629   1.000000   1.000000
    165         -1.936466       -0.478892   1.000000   1.000000
    166         -1.925853       -0.468973   1.000000   1.000000
    167         -1.904618       -0.449043   1.000000   1.000000
    168         -1.874474       -0.429227   1.000000   1.000000
    169         -1.866278       -0.419455   1.000000   1.000000
    170         -1.847902       -0.396570   1.000000   1.000000
    171         -1.832837       -0.395301   1.000000   1.000000
    172         -1.823730       -0.357307   1.000000   1.000000
    173         -1.814038       -0.347404   1.000000   1.000000
    174         -1.800862       -0.325601   1.000000   1.000000
    175         -1.787854       -0.294012   1.000000   1.000000
    176         -1.776314       -0.272163   1.000000   1.000000
    177         -1.766317       -0.247418   1.000000   1.000000
    178         -1.737234       -0.235051   1.000000   1.000000
    179         -1.734450       -0.207638   1.000000   1.000000
    180         -1.733682       -0.196198   1.000000   1.000000
    181         -1.713536       -0.186185   1.000000   1.000000
    182         -1.704720       -0.174144   1.000000   1.000000
    183         -1.687195       -0.157592   1.000000   1.000000
    184         -1.672249       -0.154143   1.000000   1.000000
    185         -1.663118       -0.135129   1.000000   1.000000
    186         -1.628452       -0.134715   1.000000   1.000000
    187         -1.608853       -0.112755   1.000000   1.000000
    188         -1.603268       -0.103434   1.000000   1.000000
    189         -1.584244       -0.078757   1.000000   1.000000
    190         -1.555109       -0.070281   1.000000   1.000000
    191         -1.543128       -0.035526   1.000000   1.000000
    192         -1.535211       -0.016126   1.000000   1.000000
    193         -1.514892        0.004224   1.000000   1.000000
    194         -1.492982        0.028838   1.000000   1.000000
    195         -1.476600        0.038258   1.000000   1.000000
    196         -1.450067        0.099113   1.000000   1.000000
    197         -1.433295        0.104384   1.000000   1.000000
    198         -1.401153        0.137916   1.000000   1.000000
    199         -1.389385        0.160503   1.000000   1.000000
    200         -1.376495        0.207300   1.000000   1.000000
    201         -1.359859        0.225105   1.000000   1.000000
    202         -1.346936        0.243386   1.000000   1.000000
    203         -1.322495        0.258661   1.000000   1.000000
    204         -1.316581        0.284989   1.000000   1.000000
    205         -1.306217        0.306578   1.000000   1.000000
    206         -1.298932        0.329094   1.000000   1.000000
    207         -1.268698        0.337309   1.000000   1.000000
    208         -1.256683        0.365858   1.000000   1.000000
    209         -1.246309        0.394563   1.000000   1.000000
    210         -1.240448        0.412228   1.000000   1.000000
    211         -1.220424        0.439799   1.000000   1.000000
    212         -1.191402        0.445833   1.000000   1.000000
    213         -1.179506        0.453245   1.000000   1.000000
    214         -1.162377        0.470776   1.000000   1.000000
    215         -1.154848        0.491301   1.000000   1.000000
    216         -1.080672        0.506828   1.000000   1.000000
    217         -1.065863        0.529903   1.000000   1.000000
    218         -1.057010        0.598742   1.000000   1.000000
    219         -1.049788        0.625011   1.000000   1.000000
    220         -1.030484        0.640311   1.000000   1.000000
    221         -1.013964        0.672422   1.000000   1.000000
    222         -0.996947        0.710488   1.000000   1.000006
    223         -0.991438        0.728422   1.000000   1.000019
    224         -0.973650        0.731976   1.000000   1.000024
    225         -0.940626        0.787536   1.000000   1.000502
    226         -0.929984        0.796836   1.000000   1.000782
    227         -0.926691        0.826026   1.000000   1.002765
    228         -0.912027        0.840634   1.000000   1.004817
    229         -0.890170        0.854448   1.000000   1.007745
    230         -0.865865        0.860924   1.000000   1.009510
    231         -0.847371        0.889850   1.000000   1.020513
    232         -0.818574        0.920778   1.000000   1.033534
    233         -0.812711        0.960917   1.000000   1.018448
    234         -0.783732        1.087923   1.000000   0.240415
    235         -0.778596        1.134463   1.000000   0.012453
    236         -0.746506        1.151260   1.000000  -0.020248
    237         -0.735099        1.163936   1.000000  -0.031854
    238         -0.718170        1.181104   1.000000  -0.035306
    239         -0.705589        1.202157   1.000000  -0.029081
    240         -0.679921        1.214663   1.000000  -0.023418
    241         -0.676172        1.236667   1.000000  -0.013958
    242         -0.640203        1.263791   1.000000  -0.006044
    243         -0.637140        1.287442   1.000000  -0.002489
    244         -0.621694        1.301847   1.000000  -0.001357
    245         -0.603472        1.315650   1.000000  -0.000724
    246         -0.599017        1.323743   1.000000  -0.000491
    247         -0.584655        1.337996   1.000000  -0.000239
    248         -0.562367        1.351784   1.000000  -0.000114
    249         -0.555057        1.359317   1.000000  -0.000075
    250         -0.532006        1.364572   1.000000  -0.000055
    251         -0.526535        1.383745   1.000000  -0.000018
    252         -0.510380        1.402276   1.000000  -0.000005
    253         -0.494125        1.410995   1.000000  -0.000003
    254         -0.484043        1.440923   1.000000  -0.000000
    255         -0.458375        1.451192   1.000000  -0.000000
    256         -0.443414        1.456043   1.000000  -0.000000
    257         -0.435485        1.481378   1.000000  -0.000000
    258         -0.419447        1.508976   1.000000  -0.000000
    259         -0.413013        1.513135   1.000000  -0.000000
    260         -0.390494        1.539770   1.000000  -0.000000
    261         -0.384967        1.548073   1.000000  -0.000000
    262         -0.376921        1.561629   1.000000  -0.000000
    263         -0.373088        1.585981   1.000000  -0.000000
    264         -0.352291        1.595027   1.000000  -0.000000
    265         -0.328192        1.613159   1.000000  -0.000000
    266         -0.318766        1.629961   1.000000  -0.000000
    267         -0.310679        1.645154   1.000000  -0.000000
    268         -0.301569        1.649092   1.000000  -0.000000
    269         -0.298070        1.684486   1.000000  -0.000000
    270         -0.283768        1.697008   1.000000  -0.000000
    271         -0.270972        1.716322   1.000000  -0.000000
    272         -0.265906        1.724843   1.000000  -0.000000
    273         -0.258425        1.732499   1.000000  -0.000000
    274         -0.252799        1.761703   1.000000  -0.000000
    275         -0.237982        1.768313   1.000000  -0.000000
    276         -0.224667        1.774252   1.000000  -0.000000
    277         -0.214881        1.785752   1.000000  -0.000000
    278         -0.205376        1.797723   1.000000  -0.000000
    279         -0.197484        1.825416   1.000000  -0.000000
    280         -0.188223        1.834705   1.000000  -0.000000
    281         -0.168760        1.848184   1.000000  -0.000000
    282         -0.161024        1.865673   1.000000  -0.000000
    283         -0.155579        1.880196   1.000000  -0.000000
    284         -0.141217        1.911870   1.000000  -0.000000
    285         -0.129877        1.919268   1.000000  -0.000000
    286         -0.125099        1.944066   1.000000  -0.000000
    287         -0.104410        1.948112   1.000000  -0.000000
    288         -0.099448        1.960496   1.000000  -0.000000
    289         -0.095994        2.002079   1.000000  -0.000000
    290         -0.087417        2.019714   1.000000  -0.000000
    291         -0.051806        2.027850   1.000000  -0.000000
    292         -0.046316        2.041143   1.000000  -0.000000
    293         -0.038393        2.051449   1.000000  -0.000000
    294         -0.032082        2.060118   1.000000  -0.000000
    295         -0.016538        2.074078   1.000000  -0.000000
    296         -0.007102        2.088871   1.000000  -0.000000
    297          0.004589        2.112437   1.000000  -0.000000
    298          0.014113        2.123057   1.000000  -0.000000
    299          0.030876        2.135188   1.000000  -0.000000
    300          0.040282        2.138192   1.000000  -0.000000
    301          0.044475        2.163447   1.000000  -0.000000
    302          0.072502        2.179997   1.000000  -0.000000
    303          0.083683        2.182586   1.000000  -0.000000
    304          0.087510        2.210599   1.000000  -0.000000
    305          0.105003        2.215683   1.000000  -0.000000
    306          0.161318        2.219021   1.000000  -0.000000
    307          0.195243        2.237563   1.000000  -0.000000
    308          0.204990        2.250900   1.000000  -0.000000
    309          0.228473        2.262438   1.000000  -0.000000
    310          0.237621        2.264994   1.000000  -0.000000
    311          0.252250        2.283829   1.000000  -0.000000
    312          0.267242        2.287794   1.000000  -0.000000
    313          0.293395        2.291398   1.000000  -0.000000
    314          0.313536        2.305926   1.000000  -0.000000
    315          0.315823        2.308689   1.000000  -0.000000
    316          0.333419        2.322412   1.000000  -0.000000
    317          0.364642        2.331547   1.000000  -0.000000
    318          0.377651        2.337612   1.000000  -0.000000
    319          0.416107        2.346127   1.000000  -0.000000
    320          0.443168        2.356419   1.000000  -0.000000
    321          0.452823        2.364162   1.000000  -0.000000
    322          0.458033        2.375471   1.000000  -0.000000
    323          0.475902        2.386854   1.000000  -0.000000
    324          0.504038        2.394252   1.000000  -0.000000
    325          0.527170        2.398091   1.000000  -0.000000
    326          0.534799        2.404476   1.000000  -0.000000
    327          0.598051        2.430376   1.000000  -0.000000
    328          0.622058        2.441055   1.000000  -0.000000
    329          0.643681        2.456353   1.000000  -0.000000
    330          0.667622        2.462789   1.000000  -0.000000
    331          0.687560        2.474582   1.000001  -0.000000
    332          0.712324        2.478444   1.000007  -0.000000
    333          0.738969        2.489769   1.000036  -0.000000
    334          0.755280        2.500021   1.000093  -0.000000
    335          0.772633        2.503749   1.000237  -0.000000
    336          0.787742        2.513871   1.000507  -0.000000
    337          0.801507        2.528151   1.000970  -0.000000
    338          0.834461        2.535060   1.003834  -0.000000
    339          0.852396        2.547393   1.007241  -0.000000
    340          0.899922        2.555878   1.025147  -0.000000
    341          0.911224        2.566565   1.030141  -0.000000
    342          0.961709        2.569127   1.017316  -0.000000
    343          0.984803        2.597782   0.962025  -0.000000
    344          1.027488        2.605983   0.726502  -0.000000
    345          1.090211        2.616251   0.224426  -0.000000
    346          1.131026        2.629842   0.022077  -0.000000
    347          1.208382        2.645741  -0.026316  -0.000000
    348          1.248104        2.656187  -0.010055  -0.000000
    349          1.311736        2.668080  -0.000869  -0.000000
    350          1.326706        2.685243  -0.000425  -0.000000
    351          1.355848        2.695231  -0.000091  -0.000000
    352          1.382014        2.709266  -0.000020  -0.000000
    353          1.408352        2.740183  -0.000004  -0.000000
    354          1.460013        2.746684  -0.000000  -0.000000
    355          1.487963        2.761372  -0.000000  -0.000000
    356          1.513335        2.786269  -0.000000  -0.000000
    357          1.528052        2.807220  -0.000000  -0.000000
    358          1.547757        2.817184  -0.000000  -0.000000
    359          1.565956        2.838639  -0.000000  -0.000000
    360          1.595487        2.842782  -0.000000  -0.000000
    361          1.637115        2.871008  -0.000000  -0.000000
    362          1.640284        2.890990  -0.000000  -0.000000
    363          1.662486        2.924025  -0.000000  -0.000000
    364          1.686072        2.936371  -0.000000  -0.000000
    365          1.703549        2.965419  -0.000000  -0.000000
    366          1.710907        2.992742  -0.000000  -0.000000
    367          1.756291        3.029080  -0.000000  -0.000000
    368          1.815458        3.035427  -0.000000  -0.000000
    369          1.827178        3.069056  -0.000000  -0.000000
    370          1.852239        3.088880  -0.000000  -0.000000
    371          1.887685        3.113683  -0.000000  -0.000000
    372          1.901429        3.142445  -0.000000  -0.000000
    373          1.923518        3.150212  -0.000000  -0.000000
    374          1.969196        3.170277  -0.000000  -0.000000
    375          1.995861        3.191504  -0.000000  -0.000000
    376          2.025341        3.204640  -0.000000  -0.000000
 
  0.2500000E+00  0.6721729E-20  0.0000000E+00  0.1250000E+00
      1        -42.729993      -43.232089   1.000000   1.000000
      2        -42.714548      -43.217347   1.000000   1.000000
      3        -42.702412      -43.194927   1.000000   1.000000
      4        -42.691602      -43.162723   1.000000   1.000000
      5        -42.669912      -43.162058   1.000000   1.000000
      6        -42.648769      -43.130992   1.000000   1.000000
      7        -42.648290      -43.127719   1.000000   1.000000
      8        -42.627094      -43.111443   1.000000   1.000000
      9        -42.624641      -43.091712   1.000000   1.000000
     10        -42.618274      -43.081870   1.000000   1.000000
     11        -42.604173      -43.077852   1.000000   1.000000
     12        -42.597099      -43.077701   1.000000   1.000000
     13        -42.215071      -43.063178   1.000000   1.000000
     14        -42.132723      -43.062192   1.000000   1.000000
     15        -42.068220      -43.052301   1.000000   1.000000
     16        -41.912136      -43.049159   1.000000   1.000000
     17        -41.901362      -43.021717   1.000000   1.000000
     18        -41.896062      -43.014100   1.000000   1.000000
     19        -41.871650      -43.012879   1.000000   1.000000
     20        -41.821707      -42.984398   1.000000   1.000000
     21        -41.796637      -42.972499   1.000000   1.000000
     22        -41.783167      -42.760728   1.000000   1.000000
     23        -41.759979      -42.741072   1.000000   1.000000
     24        -41.756522      -42.673191   1.000000   1.000000
     25        -41.729108      -42.653114   1.000000   1.000000
     26        -41.720741      -42.586461   1.000000   1.000000
     27        -41.710825      -42.553356   1.000000   1.000000
     28        -41.703222      -41.642525   1.000000   1.000000
     29        -41.687328      -41.526104   1.000000   1.000000
     30        -41.677828      -41.520444   1.000000   1.000000
     31        -41.668666      -40.382502   1.000000   1.000000
     32        -41.660427      -40.364046   1.000000   1.000000
     33        -41.649940      -40.067407   1.000000   1.000000
     34        -41.621703      -39.936701   1.000000   1.000000
     35        -41.619527      -39.846105   1.000000   1.000000
     36        -41.600165      -39.841116   1.000000   1.000000
     37        -40.227346      -39.717732   1.000000   1.000000
     38        -40.202591      -39.653837   1.000000   1.000000
     39        -40.124722      -39.563114   1.000000   1.000000
     40        -40.124551      -39.367969   1.000000   1.000000
     41        -40.103953      -39.355424   1.000000   1.000000
     42        -40.022984      -39.280593   1.000000   1.000000
     43        -15.411160      -15.446491   1.000000   1.000000
     44        -15.409385      -15.442386   1.000000   1.000000
     45        -15.407461      -15.435008   1.000000   1.000000
     46        -15.368023      -15.402563   1.000000   1.000000
     47        -15.360552      -15.398599   1.000000   1.000000
     48         -7.542410       -7.599347   1.000000   1.000000
     49         -6.979454       -6.885258   1.000000   1.000000
     50         -6.007377       -5.865590   1.000000   1.000000
     51         -5.950304       -5.812377   1.000000   1.000000
     52         -5.155779       -4.934976   1.000000   1.000000
     53         -5.050540       -4.876045   1.000000   1.000000
     54         -4.982336       -4.820437   1.000000   1.000000
     55         -4.720560       -4.449953   1.000000   1.000000
     56         -4.456494       -4.134113   1.000000   1.000000
     57         -4.395861       -4.099430   1.000000   1.000000
     58         -4.381876       -4.069196   1.000000   1.000000
     59         -4.305250       -4.036599   1.000000   1.000000
     60         -4.276996       -3.994462   1.000000   1.000000
     61         -4.175508       -3.769182   1.000000   1.000000
     62         -4.038575       -3.508956   1.000000   1.000000
     63         -3.944953       -3.360915   1.000000   1.000000
     64         -3.892844       -3.298245   1.000000   1.000000
     65         -3.866476       -3.228073   1.000000   1.000000
     66         -3.801668       -3.207839   1.000000   1.000000
     67         -3.767923       -3.179231   1.000000   1.000000
     68         -3.682150       -3.158311   1.000000   1.000000
     69         -3.660873       -3.095793   1.000000   1.000000
     70         -3.650886       -3.030600   1.000000   1.000000
     71         -3.640365       -2.826533   1.000000   1.000000
     72         -3.575878       -2.763661   1.000000   1.000000
     73         -3.516551       -2.716896   1.000000   1.000000
     74         -3.476867       -2.695353   1.000000   1.000000
     75         -3.456238       -2.571098   1.000000   1.000000
     76         -3.443928       -2.545700   1.000000   1.000000
     77         -3.428266       -2.516332   1.000000   1.000000
     78         -3.394509       -2.493849   1.000000   1.000000
     79         -3.356875       -2.444228   1.000000   1.000000
     80         -3.331082       -2.417763   1.000000   1.000000
     81         -3.298474       -2.399608   1.000000   1.000000
     82         -3.249031       -2.353115   1.000000   1.000000
     83         -3.207965       -2.288418   1.000000   1.000000
     84         -3.184809       -2.239778   1.000000   1.000000
     85         -3.168171       -2.205709   1.000000   1.000000
     86         -3.150752       -2.185704   1.000000   1.000000
     87         -3.141994       -2.157187   1.000000   1.000000