       N       E                     dE             d eps       ncg     rms          rms(c)
DAV:   1    -0.513253954614E+03   -0.51325E+03   -0.29071E-01 19560   0.307E+00
DAV:   2    -0.513257427646E+03   -0.34730E-02   -0.34730E-02 20192   0.432E-01
DAV:   3    -0.513257644670E+03   -0.21702E-03   -0.21702E-03 23864   0.529E-02
DAV:   4    -0.513257650176E+03   -0.55062E-05   -0.55060E-05 20560   0.117E-02
DAV:   5    -0.513257650548E+03   -0.37160E-06   -0.37161E-06 12728   0.279E-03
   1 F= -.51325765E+03 E0= -.51325844E+03  d E =0.235762E-02  mag=   109.5193
