  63  63   0   0
  0.2715385E+02  0.8532700E-09  0.8497000E-09  0.2359500E-08  0.5000000E-15
  1.000000000000000E-004
  CAR 
 ni3al                                   
      5.31023921    -45.76332048  301      0.89501876      1.00000000
    -45.763  0.0000E+00  0.0000E+00  0.0000E+00  0.0000E+00
    -45.593  0.0000E+00  0.0000E+00  0.0000E+00  0.0000E+00
    -45.423  0.0000E+00  0.0000E+00  0.0000E+00  0.0000E+00
    -45.253  0.0000E+00  0.0000E+00  0.0000E+00  0.0000E+00
    -45.082  0.0000E+00  0.0000E+00  0.0000E+00  0.0000E+00
    -44.912  0.0000E+00  0.0000E+00  0.0000E+00  0.0000E+00
    -44.742  0.0000E+00 -0.1214E-33  0.0000E+00 -0.2066E-34
    -44.572  0.0000E+00 -0.1058E-25  0.0000E+00 -0.1801E-26
    -44.401  0.0000E+00 -0.7014E-19  0.0000E+00 -0.1194E-19
    -44.231 -0.1039E-35 -0.3433E-13 -0.1768E-36 -0.5844E-14
    -44.061 -0.1785E-27 -0.1316E-08 -0.3039E-28 -0.2241E-09
    -43.891 -0.2253E-20 -0.3849E-05 -0.3836E-21 -0.6555E-06
    -43.720 -0.2092E-14 -0.8083E-03 -0.3562E-15 -0.1383E-03
    -43.550 -0.1491E-09 -0.5239E-02 -0.2539E-10 -0.1030E-02
    -43.380 -0.7879E-06  0.1041E+00 -0.1342E-06  0.1670E-01
    -43.210 -0.2903E-03  0.2330E+00 -0.4956E-04  0.5636E-01
    -43.039 -0.4464E-02  0.1452E+00 -0.8095E-03  0.8108E-01
    -42.869  0.5862E-01  0.7499E-01  0.9170E-02  0.9384E-01
    -42.699  0.1188E+00  0.3477E-01  0.2939E-01  0.9976E-01
    -42.529  0.4275E-02  0.1986E-02  0.3012E-01  0.1001E+00
    -42.358  0.2468E-01 -0.5922E-03  0.3432E-01  0.1000E+00
    -42.188  0.2896E-01 -0.8824E-05  0.3925E-01  0.1000E+00
    -42.018  0.3027E-01 -0.4835E-05  0.4440E-01  0.1000E+00
    -41.848  0.2369E+00 -0.4187E-03  0.8474E-01  0.9993E-01
    -41.677  0.1536E+00  0.1245E-02  0.1109E+00  0.1001E+00
    -41.507 -0.3756E-02  0.2867E-01  0.1102E+00  0.1050E+00
    -41.337 -0.1429E-02  0.2937E-01  0.1100E+00  0.1100E+00
    -41.167 -0.8650E-05  0.2218E-03  0.1100E+00  0.1101E+00
    -40.996 -0.3491E-08 -0.3439E-03  0.1100E+00  0.1100E+00
    -40.826 -0.1277E-06 -0.2348E-03  0.1100E+00  0.1100E+00
    -40.656 -0.6536E-04 -0.5295E-03  0.1100E+00  0.1099E+00
    -40.486 -0.1892E-02  0.2602E-01  0.1097E+00  0.1143E+00
    -40.315  0.1402E-01  0.1492E-01  0.1121E+00  0.1168E+00
    -40.145  0.9455E-01  0.1677E-01  0.1281E+00  0.1197E+00
    -39.975  0.6751E-01  0.4410E-01  0.1396E+00  0.1272E+00
    -39.805  0.3105E-02  0.4449E-01  0.1402E+00  0.1348E+00
    -39.634 -0.9859E-03  0.2902E-01  0.1400E+00  0.1397E+00
    -39.464 -0.1657E-04  0.2186E-02  0.1400E+00  0.1401E+00
    -39.294 -0.1726E-07 -0.5164E-03  0.1400E+00  0.1400E+00
    -39.124 -0.1264E-11 -0.7477E-05  0.1400E+00  0.1400E+00
    -38.954 -0.8695E-17 -0.6089E-08  0.1400E+00  0.1400E+00
    -38.783  0.0000E+00 -0.3365E-12  0.1400E+00  0.1400E+00
    -38.613  0.0000E+00  0.0000E+00  0.1400E+00  0.1400E+00
    -38.443  0.0000E+00  0.0000E+00  0.1400E+00  0.1400E+00
    -38.273  0.0000E+00  0.0000E+00  0.1400E+00  0.1400E+00
    -38.102  0.0000E+00  0.0000E+00  0.1400E+00  0.1400E+00
    -37.932  0.0000E+00  0.0000E+00  0.1400E+00  0.1400E+00
    -37.762  0.0000E+00  0.0000E+00  0.1400E+00  0.1400E+00
    -37.592  0.0000E+00  0.0000E+00  0.1400E+00  0.1400E+00
    -37.421  0.0000E+00  0.0000E+00  0.1400E+00  0.1400E+00
    -37.251  0.0000E+00  0.0000E+00  0.1400E+00  0.1400E+00
    -37.081  0.0000E+00  0.0000E+00  0.1400E+00  0.1400E+00
    -36.911  0.0000E+00  0.0000E+00  0.1400E+00  0.1400E+00
    -36.740  0.0000E+00  0.0000E+00  0.1400E+00  0.1400E+00
    -36.570  0.0000E+00  0.0000E+00  0.1400E+00  0.1400E+00
    -36.400  0.0000E+00  0.0000E+00  0.1400E+00  0.1400E+00
    -36.230  0.0000E+00  0.0000E+00  0.1400E+00  0.1400E+00
    -36.059  0.0000E+00  0.0000E+00  0.1400E+00  0.1400E+00
    -35.889  0.0000E+00  0.0000E+00  0.1400E+00  0.1400E+00
    -35.719  0.0000E+00  0.0000E+00  0.1400E+00  0.1400E+00
    -35.549  0.0000E+00  0.0000E+00  0.1400E+00  0.1400E+00
    -35.378  0.0000E+00  0.0000E+00  0.1400E+00  0.1400E+00
    -35.208  0.0000E+00  0.0000E+00  0.1400E+00  0.1400E+00
    -35.038  0.0000E+00  0.0000E+00  0.1400E+00  0.1400E+00
    -34.868  0.0000E+00  0.0000E+00  0.1400E+00  0.1400E+00
    -34.697  0.0000E+00  0.0000E+00  0.1400E+00  0.1400E+00
    -34.527  0.0000E+00  0.0000E+00  0.1400E+00  0.1400E+00
    -34.357  0.0000E+00  0.0000E+00  0.1400E+00  0.1400E+00
    -34.187  0.0000E+00  0.0000E+00  0.1400E+00  0.1400E+00
    -34.016  0.0000E+00  0.0000E+00  0.1400E+00  0.1400E+00
    -33.846  0.0000E+00  0.0000E+00  0.1400E+00  0.1400E+00
    -33.676  0.0000E+00  0.0000E+00  0.1400E+00  0.1400E+00
    -33.506  0.0000E+00  0.0000E+00  0.1400E+00  0.1400E+00
    -33.335  0.0000E+00  0.0000E+00  0.1400E+00  0.1400E+00
    -33.165  0.0000E+00  0.0000E+00  0.1400E+00  0.1400E+00
    -32.995  0.0000E+00  0.0000E+00  0.1400E+00  0.1400E+00
    -32.825  0.0000E+00  0.0000E+00  0.1400E+00  0.1400E+00
    -32.654  0.0000E+00  0.0000E+00  0.1400E+00  0.1400E+00
    -32.484  0.0000E+00  0.0000E+00  0.1400E+00  0.1400E+00
    -32.314  0.0000E+00  0.0000E+00  0.1400E+00  0.1400E+00
    -32.144  0.0000E+00  0.0000E+00  0.1400E+00  0.1400E+00
    -31.973  0.0000E+00  0.0000E+00  0.1400E+00  0.1400E+00
    -31.803  0.0000E+00  0.0000E+00  0.1400E+00  0.1400E+00
    -31.633  0.0000E+00  0.0000E+00  0.1400E+00  0.1400E+00
    -31.463  0.0000E+00  0.0000E+00  0.1400E+00  0.1400E+00
    -31.292  0.0000E+00  0.0000E+00  0.1400E+00  0.1400E+00
    -31.122  0.0000E+00  0.0000E+00  0.1400E+00  0.1400E+00
    -30.952  0.0000E+00  0.0000E+00  0.1400E+00  0.1400E+00
    -30.782  0.0000E+00  0.0000E+00  0.1400E+00  0.1400E+00
    -30.611  0.0000E+00  0.0000E+00  0.1400E+00  0.1400E+00
    -30.441  0.0000E+00  0.0000E+00  0.1400E+00  0.1400E+00
    -30.271  0.0000E+00  0.0000E+00  0.1400E+00  0.1400E+00
    -30.101  0.0000E+00  0.0000E+00  0.1400E+00  0.1400E+00
    -29.931  0.0000E+00  0.0000E+00  0.1400E+00  0.1400E+00
    -29.760  0.0000E+00  0.0000E+00  0.1400E+00  0.1400E+00
    -29.590  0.0000E+00  0.0000E+00  0.1400E+00  0.1400E+00
    -29.420  0.0000E+00  0.0000E+00  0.1400E+00  0.1400E+00
    -29.250  0.0000E+00  0.0000E+00  0.1400E+00  0.1400E+00
    -29.079  0.0000E+00  0.0000E+00  0.1400E+00  0.1400E+00
    -28.909  0.0000E+00  0.0000E+00  0.1400E+00  0.1400E+00
    -28.739  0.0000E+00  0.0000E+00  0.1400E+00  0.1400E+00
    -28.569  0.0000E+00  0.0000E+00  0.1400E+00  0.1400E+00
    -28.398  0.0000E+00  0.0000E+00  0.1400E+00  0.1400E+00
    -28.228  0.0000E+00  0.0000E+00  0.1400E+00  0.1400E+00
    -28.058  0.0000E+00  0.0000E+00  0.1400E+00  0.1400E+00
    -27.888  0.0000E+00  0.0000E+00  0.1400E+00  0.1400E+00
    -27.717  0.0000E+00  0.0000E+00  0.1400E+00  0.1400E+00
    -27.547  0.0000E+00  0.0000E+00  0.1400E+00  0.1400E+00
    -27.377  0.0000E+00  0.0000E+00  0.1400E+00  0.1400E+00
    -27.207  0.0000E+00  0.0000E+00  0.1400E+00  0.1400E+00
    -27.036  0.0000E+00  0.0000E+00  0.1400E+00  0.1400E+00
    -26.866  0.0000E+00  0.0000E+00  0.1400E+00  0.1400E+00
    -26.696  0.0000E+00  0.0000E+00  0.1400E+00  0.1400E+00
    -26.526  0.0000E+00  0.0000E+00  0.1400E+00  0.1400E+00
    -26.355  0.0000E+00  0.0000E+00  0.1400E+00  0.1400E+00
    -26.185  0.0000E+00  0.0000E+00  0.1400E+00  0.1400E+00
    -26.015  0.0000E+00  0.0000E+00  0.1400E+00  0.1400E+00
    -25.845  0.0000E+00  0.0000E+00  0.1400E+00  0.1400E+00
    -25.674  0.0000E+00  0.0000E+00  0.1400E+00  0.1400E+00
    -25.504  0.0000E+00  0.0000E+00  0.1400E+00  0.1400E+00
    -25.334  0.0000E+00  0.0000E+00  0.1400E+00  0.1400E+00
    -25.164  0.0000E+00  0.0000E+00  0.1400E+00  0.1400E+00
    -24.993  0.0000E+00  0.0000E+00  0.1400E+00  0.1400E+00
    -24.823  0.0000E+00  0.0000E+00  0.1400E+00  0.1400E+00
    -24.653  0.0000E+00  0.0000E+00  0.1400E+00  0.1400E+00
    -24.483  0.0000E+00  0.0000E+00  0.1400E+00  0.1400E+00
    -24.312  0.0000E+00  0.0000E+00  0.1400E+00  0.1400E+00
    -24.142  0.0000E+00  0.0000E+00  0.1400E+00  0.1400E+00
    -23.972  0.0000E+00  0.0000E+00  0.1400E+00  0.1400E+00
    -23.802  0.0000E+00  0.0000E+00  0.1400E+00  0.1400E+00
    -23.631  0.0000E+00  0.0000E+00  0.1400E+00  0.1400E+00
    -23.461  0.0000E+00  0.0000E+00  0.1400E+00  0.1400E+00
    -23.291  0.0000E+00  0.0000E+00  0.1400E+00  0.1400E+00
    -23.121  0.0000E+00  0.0000E+00  0.1400E+00  0.1400E+00
    -22.950  0.0000E+00  0.0000E+00  0.1400E+00  0.1400E+00
    -22.780  0.0000E+00  0.0000E+00  0.1400E+00  0.1400E+00
    -22.610  0.0000E+00  0.0000E+00  0.1400E+00  0.1400E+00
    -22.440  0.0000E+00  0.0000E+00  0.1400E+00  0.1400E+00
    -22.269  0.0000E+00  0.0000E+00  0.1400E+00  0.1400E+00
    -22.099  0.0000E+00  0.0000E+00  0.1400E+00  0.1400E+00
    -21.929  0.0000E+00  0.0000E+00  0.1400E+00  0.1400E+00
    -21.759  0.0000E+00  0.0000E+00  0.1400E+00  0.1400E+00
    -21.589  0.0000E+00  0.0000E+00  0.1400E+00  0.1400E+00
    -21.418  0.0000E+00  0.0000E+00  0.1400E+00  0.1400E+00
    -21.248  0.0000E+00  0.0000E+00  0.1400E+00  0.1400E+00
    -21.078  0.0000E+00  0.0000E+00  0.1400E+00  0.1400E+00
    -20.908  0.0000E+00  0.0000E+00  0.1400E+00  0.1400E+00
    -20.737  0.0000E+00  0.0000E+00  0.1400E+00  0.1400E+00
    -20.567  0.0000E+00  0.0000E+00  0.1400E+00  0.1400E+00
    -20.397  0.0000E+00  0.0000E+00  0.1400E+00  0.1400E+00
    -20.227  0.0000E+00  0.0000E+00  0.1400E+00  0.1400E+00
    -20.056  0.0000E+00  0.0000E+00  0.1400E+00  0.1400E+00
    -19.886  0.0000E+00  0.0000E+00  0.1400E+00  0.1400E+00
    -19.716  0.0000E+00  0.0000E+00  0.1400E+00  0.1400E+00
    -19.546  0.0000E+00  0.0000E+00  0.1400E+00  0.1400E+00
    -19.375  0.0000E+00  0.0000E+00  0.1400E+00  0.1400E+00
    -19.205  0.0000E+00  0.0000E+00  0.1400E+00  0.1400E+00
    -19.035  0.0000E+00  0.0000E+00  0.1400E+00  0.1400E+00
    -18.865  0.0000E+00  0.0000E+00  0.1400E+00  0.1400E+00
    -18.694  0.0000E+00  0.0000E+00  0.1400E+00  0.1400E+00
    -18.524  0.0000E+00  0.0000E+00  0.1400E+00  0.1400E+00
    -18.354  0.0000E+00  0.0000E+00  0.1400E+00  0.1400E+00
    -18.184  0.0000E+00  0.0000E+00  0.1400E+00  0.1400E+00
    -18.013  0.0000E+00  0.0000E+00  0.1400E+00  0.1400E+00
    -17.843  0.0000E+00  0.0000E+00  0.1400E+00  0.1400E+00
    -17.673  0.0000E+00  0.0000E+00  0.1400E+00  0.1400E+00
    -17.503  0.0000E+00  0.0000E+00  0.1400E+00  0.1400E+00
    -17.332  0.0000E+00  0.0000E+00  0.1400E+00  0.1400E+00
    -17.162  0.0000E+00  0.0000E+00  0.1400E+00  0.1400E+00
    -16.992  0.0000E+00  0.0000E+00  0.1400E+00  0.1400E+00
    -16.822  0.0000E+00  0.0000E+00  0.1400E+00  0.1400E+00
    -16.651  0.0000E+00  0.0000E+00  0.1400E+00  0.1400E+00
    -16.481  0.0000E+00  0.0000E+00  0.1400E+00  0.1400E+00
    -16.311  0.0000E+00  0.0000E+00  0.1400E+00  0.1400E+00
    -16.141  0.0000E+00  0.0000E+00  0.1400E+00  0.1400E+00
    -15.970  0.0000E+00  0.0000E+00  0.1400E+00  0.1400E+00
    -15.800  0.0000E+00  0.0000E+00  0.1400E+00  0.1400E+00
    -15.630  0.0000E+00  0.0000E+00  0.1400E+00  0.1400E+00
    -15.460  0.0000E+00  0.0000E+00  0.1400E+00  0.1400E+00
    -15.289  0.0000E+00  0.0000E+00  0.1400E+00  0.1400E+00
    -15.119  0.0000E+00  0.0000E+00  0.1400E+00  0.1400E+00
    -14.949  0.0000E+00  0.0000E+00  0.1400E+00  0.1400E+00
    -14.779  0.0000E+00  0.0000E+00  0.1400E+00  0.1400E+00
    -14.608  0.0000E+00  0.0000E+00  0.1400E+00  0.1400E+00
    -14.438  0.0000E+00  0.0000E+00  0.1400E+00  0.1400E+00
    -14.268  0.0000E+00  0.0000E+00  0.1400E+00  0.1400E+00
    -14.098  0.0000E+00  0.0000E+00  0.1400E+00  0.1400E+00
    -13.927  0.0000E+00  0.0000E+00  0.1400E+00  0.1400E+00
    -13.757  0.0000E+00  0.0000E+00  0.1400E+00  0.1400E+00
    -13.587  0.0000E+00  0.0000E+00  0.1400E+00  0.1400E+00
    -13.417  0.0000E+00  0.0000E+00  0.1400E+00  0.1400E+00
    -13.246  0.0000E+00  0.0000E+00  0.1400E+00  0.1400E+00
    -13.076  0.0000E+00  0.0000E+00  0.1400E+00  0.1400E+00
    -12.906  0.0000E+00  0.0000E+00  0.1400E+00  0.1400E+00
    -12.736  0.0000E+00  0.0000E+00  0.1400E+00  0.1400E+00
    -12.566  0.0000E+00  0.0000E+00  0.1400E+00  0.1400E+00
    -12.395  0.0000E+00  0.0000E+00  0.1400E+00  0.1400E+00
    -12.225  0.0000E+00  0.0000E+00  0.1400E+00  0.1400E+00
    -12.055  0.0000E+00  0.0000E+00  0.1400E+00  0.1400E+00
    -11.885  0.0000E+00  0.0000E+00  0.1400E+00  0.1400E+00
    -11.714  0.0000E+00  0.0000E+00  0.1400E+00  0.1400E+00
    -11.544  0.0000E+00  0.0000E+00  0.1400E+00  0.1400E+00
    -11.374  0.0000E+00  0.0000E+00  0.1400E+00  0.1400E+00
    -11.204  0.0000E+00  0.0000E+00  0.1400E+00  0.1400E+00
    -11.033  0.0000E+00  0.0000E+00  0.1400E+00  0.1400E+00
    -10.863  0.0000E+00  0.0000E+00  0.1400E+00  0.1400E+00
    -10.693  0.0000E+00  0.0000E+00  0.1400E+00  0.1400E+00
    -10.523  0.0000E+00  0.0000E+00  0.1400E+00  0.1400E+00
    -10.352  0.0000E+00  0.0000E+00  0.1400E+00  0.1400E+00
    -10.182  0.0000E+00  0.0000E+00  0.1400E+00  0.1400E+00
    -10.012  0.0000E+00  0.0000E+00  0.1400E+00  0.1400E+00
     -9.842  0.0000E+00  0.0000E+00  0.1400E+00  0.1400E+00
     -9.671  0.0000E+00  0.0000E+00  0.1400E+00  0.1400E+00
     -9.501  0.0000E+00  0.0000E+00  0.1400E+00  0.1400E+00
     -9.331  0.0000E+00  0.0000E+00  0.1400E+00  0.1400E+00
     -9.161  0.0000E+00  0.0000E+00  0.1400E+00  0.1400E+00
     -8.990  0.0000E+00  0.0000E+00  0.1400E+00  0.1400E+00
     -8.820  0.0000E+00  0.0000E+00  0.1400E+00  0.1400E+00
     -8.650 -0.1408E-35  0.0000E+00  0.1400E+00  0.1400E+00
     -8.480 -0.1463E-27 -0.7206E-32  0.1400E+00  0.1400E+00
     -8.309 -0.1131E-20 -0.2356E-24  0.1400E+00  0.1400E+00
     -8.139 -0.6227E-15 -0.5712E-18  0.1400E+00  0.1400E+00
     -7.969 -0.2525E-10 -0.9730E-13  0.1400E+00  0.1400E+00
     -7.799 -0.7059E-07 -0.1208E-08  0.1400E+00  0.1400E+00
     -7.628 -0.1217E-04 -0.9978E-06  0.1400E+00  0.1400E+00
     -7.458 -0.6120E-04 -0.4464E-04  0.1400E+00  0.1400E+00
     -7.288  0.1214E-02  0.1608E-03  0.1402E+00  0.1400E+00
     -7.118  0.5244E-02  0.2877E-02  0.1411E+00  0.1405E+00
     -6.947  0.4341E-02  0.5903E-02  0.1418E+00  0.1415E+00
     -6.777  0.2892E-02  0.2398E-02  0.1423E+00  0.1419E+00
     -6.607  0.9219E-02  0.5639E-02  0.1439E+00  0.1429E+00
     -6.437  0.3044E-02  0.8304E-02  0.1444E+00  0.1443E+00
     -6.266  0.4823E-02  0.8134E-03  0.1452E+00  0.1444E+00
     -6.096  0.1311E-01  0.7498E-02  0.1475E+00  0.1457E+00
     -5.926  0.1229E-01  0.1411E-01  0.1496E+00  0.1481E+00
     -5.756  0.9993E-02  0.1003E-01  0.1513E+00  0.1498E+00
     -5.585  0.1154E-01  0.1021E-01  0.1532E+00  0.1516E+00
     -5.415  0.5382E-02  0.1191E-01  0.1541E+00  0.1536E+00
     -5.245  0.1501E-01  0.2894E-02  0.1567E+00  0.1541E+00
     -5.075  0.1998E-01  0.1533E-01  0.1601E+00  0.1567E+00
     -4.904  0.1526E-01  0.1931E-01  0.1627E+00  0.1600E+00
     -4.734  0.1871E-01  0.1091E-01  0.1659E+00  0.1618E+00
     -4.564  0.2211E-01  0.1888E-01  0.1696E+00  0.1650E+00
     -4.394  0.2623E-01  0.9986E-02  0.1741E+00  0.1667E+00
     -4.223  0.3519E-01  0.2745E-01  0.1801E+00  0.1714E+00
     -4.053  0.5374E-01  0.2347E-01  0.1892E+00  0.1754E+00
     -3.883  0.7264E-01  0.2552E-01  0.2016E+00  0.1798E+00
     -3.713  0.1125E+00  0.2079E-01  0.2208E+00  0.1833E+00
     -3.543  0.1200E+00  0.2666E-01  0.2412E+00  0.1878E+00
     -3.372  0.1447E+00  0.4107E-01  0.2658E+00  0.1948E+00
     -3.202  0.1896E+00  0.5720E-01  0.2981E+00  0.2046E+00
     -3.032  0.1530E+00  0.6284E-01  0.3242E+00  0.2153E+00
     -2.862  0.1424E+00  0.7623E-01  0.3484E+00  0.2282E+00
     -2.691  0.1924E+00  0.6063E-01  0.3812E+00  0.2386E+00
     -2.521  0.2604E+00  0.8611E-01  0.4255E+00  0.2532E+00
     -2.351  0.2430E+00  0.1086E+00  0.4669E+00  0.2717E+00
     -2.181  0.2190E+00  0.1076E+00  0.5041E+00  0.2900E+00
     -2.010  0.2286E+00  0.1104E+00  0.5431E+00  0.3088E+00
     -1.840  0.2197E+00  0.1100E+00  0.5805E+00  0.3275E+00
     -1.670  0.2323E+00  0.1219E+00  0.6200E+00  0.3483E+00
     -1.500  0.2286E+00  0.1571E+00  0.6589E+00  0.3750E+00
     -1.329  0.2017E+00  0.1762E+00  0.6933E+00  0.4050E+00
     -1.159  0.1607E+00  0.1715E+00  0.7206E+00  0.4342E+00
     -0.989  0.1601E+00  0.1703E+00  0.7479E+00  0.4632E+00
     -0.819  0.1796E+00  0.1784E+00  0.7784E+00  0.4936E+00
     -0.648  0.2381E+00  0.2042E+00  0.8190E+00  0.5283E+00
     -0.478  0.2942E+00  0.2159E+00  0.8691E+00  0.5651E+00
     -0.308  0.3138E+00  0.2199E+00  0.9225E+00  0.6026E+00
     -0.138  0.2550E+00  0.1965E+00  0.9659E+00  0.6360E+00
      0.033  0.1877E+00  0.1602E+00  0.9978E+00  0.6633E+00
      0.203  0.1493E+00  0.1369E+00  0.1023E+01  0.6866E+00
      0.373  0.1344E+00  0.1132E+00  0.1046E+01  0.7058E+00
      0.543  0.1259E+00  0.9677E-01  0.1068E+01  0.7223E+00
      0.714  0.1230E+00  0.1017E+00  0.1089E+01  0.7396E+00
      0.884  0.8822E-01  0.1235E+00  0.1104E+01  0.7607E+00
      1.054  0.9064E-01  0.1459E+00  0.1119E+01  0.7855E+00
      1.224  0.1072E+00  0.1810E+00  0.1137E+01  0.8163E+00
      1.395  0.1223E+00  0.1885E+00  0.1158E+01  0.8484E+00
      1.565  0.1218E+00  0.2114E+00  0.1179E+01  0.8844E+00
      1.735  0.1281E+00  0.2403E+00  0.1201E+01  0.9253E+00
      1.905  0.1138E+00  0.2353E+00  0.1220E+01  0.9654E+00
      2.076  0.4097E-01  0.2820E+00  0.1227E+01  0.1013E+01
      2.246 -0.1122E-02  0.3134E+00  0.1227E+01  0.1067E+01
      2.416 -0.4291E-03  0.3232E+00  0.1227E+01  0.1122E+01
      2.586 -0.3403E-05  0.2873E+00  0.1227E+01  0.1171E+01
      2.757 -0.2012E-08  0.2069E+00  0.1227E+01  0.1206E+01
      2.927 -0.9454E-13  0.1109E+00  0.1227E+01  0.1225E+01
      3.097 -0.2717E-18  0.1309E-01  0.1227E+01  0.1227E+01
      3.267  0.0000E+00 -0.1882E-02  0.1227E+01  0.1227E+01
      3.438  0.0000E+00 -0.9192E-04  0.1227E+01  0.1227E+01
      3.608  0.0000E+00 -0.3395E-06  0.1227E+01  0.1227E+01
      3.778  0.0000E+00 -0.1078E-09  0.1227E+01  0.1227E+01
      3.948  0.0000E+00 -0.2761E-14  0.1227E+01  0.1227E+01
      4.119  0.0000E+00  0.0000E+00  0.1227E+01  0.1227E+01
      4.289  0.0000E+00  0.0000E+00  0.1227E+01  0.1227E+01
      4.459  0.0000E+00  0.0000E+00  0.1227E+01  0.1227E+01
      4.629  0.0000E+00  0.0000E+00  0.1227E+01  0.1227E+01
      4.800  0.0000E+00  0.0000E+00  0.1227E+01  0.1227E+01
      4.970  0.0000E+00  0.0000E+00  0.1227E+01  0.1227E+01
      5.140  0.0000E+00  0.0000E+00  0.1227E+01  0.1227E+01
      5.310  0.0000E+00  0.0000E+00  0.1227E+01  0.1227E+01
