   63   63  300    2
  0.2715385E+02  0.8532700E-09  0.8497000E-09  0.2359500E-08  0.5000000E-15
  1.000000000000000E-004
  CAR 
 ni3al                                   
    560     10    368
 
  0.0000000E+00  0.0000000E+00  0.0000000E+00  0.6250000E-01
      1        -42.889705      -43.441782   1.000000   1.000000
      2        -42.872924      -43.413737   1.000000   1.000000
      3        -42.859634      -43.410062   1.000000   1.000000
      4        -42.851758      -43.390975   1.000000   1.000000
      5        -42.826620      -43.377678   1.000000   1.000000
      6        -42.810803      -43.376104   1.000000   1.000000
      7        -42.790503      -43.364087   1.000000   1.000000
      8        -42.787205      -43.355471   1.000000   1.000000
      9        -42.777978      -43.351341   1.000000   1.000000
     10        -42.407686      -43.327971   1.000000   1.000000
     11        -42.334820      -43.300944   1.000000   1.000000
     12        -42.294119      -43.281520   1.000000   1.000000
     13        -42.016058      -43.260788   1.000000   1.000000
     14        -41.996370      -43.249666   1.000000   1.000000
     15        -41.961173      -43.245940   1.000000   1.000000
     16        -41.953298      -43.234220   1.000000   1.000000
     17        -41.942894      -43.227803   1.000000   1.000000
     18        -41.927683      -43.217447   1.000000   1.000000
     19        -41.927383      -43.211927   1.000000   1.000000
     20        -41.919364      -43.179724   1.000000   1.000000
     21        -41.898194      -43.129383   1.000000   1.000000
     22        -41.897066      -43.103895   1.000000   1.000000
     23        -41.878588      -43.099838   1.000000   1.000000
     24        -41.877910      -43.058582   1.000000   1.000000
     25        -41.862614      -43.033740   1.000000   1.000000
     26        -41.851758      -43.012202   1.000000   1.000000
     27        -41.837622      -42.949028   1.000000   1.000000
     28        -41.818309      -42.895595   1.000000   1.000000
     29        -41.804982      -42.851999   1.000000   1.000000
     30        -41.800279      -42.764857   1.000000   1.000000
     31        -41.795626      -41.594343   1.000000   1.000000
     32        -41.794180      -41.494534   1.000000   1.000000
     33        -41.775443      -41.441498   1.000000   1.000000
     34        -40.307200      -40.516142   1.000000   1.000000
     35        -40.263522      -40.509772   1.000000   1.000000
     36        -40.213206      -40.200228   1.000000   1.000000
     37        -40.192521      -40.084883   1.000000   1.000000
     38        -40.181203      -39.992981   1.000000   1.000000
     39        -40.141948      -39.988573   1.000000   1.000000
     40        -40.140693      -39.867472   1.000000   1.000000
     41        -40.079864      -39.800277   1.000000   1.000000
     42        -40.025279      -39.704917   1.000000   1.000000
     43         -7.335762       -7.241327   1.000000   1.000000
     44         -6.373920       -6.238350   1.000000   1.000000
     45         -5.378010       -5.182956   1.000000   1.000000
     46         -5.322190       -5.167460   1.000000   1.000000
     47         -5.301939       -5.153606   1.000000   1.000000
     48         -5.273257       -5.131702   1.000000   1.000000
     49         -5.065997       -4.833422   1.000000   1.000000
     50         -4.738471       -4.432154   1.000000   1.000000
     51         -4.701404       -4.422054   1.000000   1.000000
     52         -4.669708       -4.380930   1.000000   1.000000
     53         -4.655608       -4.351075   1.000000   1.000000
     54         -4.220606       -3.791222   1.000000   1.000000
     55         -4.209521       -3.778432   1.000000   1.000000
     56         -4.196629       -3.737229   1.000000   1.000000
     57         -4.185119       -3.703209   1.000000   1.000000
     58         -4.162552       -3.629815   1.000000   1.000000
     59         -4.139901       -3.610342   1.000000   1.000000
     60         -4.129760       -3.553874   1.000000   1.000000
     61         -4.096984       -3.519897   1.000000   1.000000
     62         -3.952152       -3.398158   1.000000   1.000000
     63         -3.929124       -3.024941   1.000000   1.000000
     64         -3.824593       -2.996158   1.000000   1.000000
     65         -3.738544       -2.975948   1.000000   1.000000
     66         -3.722864       -2.931602   1.000000   1.000000
     67         -3.676209       -2.912852   1.000000   1.000000
     68         -3.651041       -2.876602   1.000000   1.000000
     69         -3.587713       -2.858470   1.000000   1.000000
     70         -3.545379       -2.826159   1.000000   1.000000
     71         -3.509729       -2.753700   1.000000   1.000000
     72         -3.493170       -2.648202   1.000000   1.000000
     73         -3.478153       -2.632478   1.000000   1.000000
     74         -3.464887       -2.509760   1.000000   1.000000
     75         -3.448179       -2.485836   1.000000   1.000000
     76         -3.441576       -2.463405   1.000000   1.000000
     77         -3.432395       -2.450455   1.000000   1.000000
     78         -3.410364       -2.401876   1.000000   1.000000
     79         -3.385831       -2.376696   1.000000   1.000000
     80         -3.373521       -2.362621   1.000000   1.000000
     81         -3.358554       -2.358310   1.000000   1.000000
     82         -3.346843       -2.306134   1.000000   1.000000
     83         -3.322616       -2.295159   1.000000   1.000000
     84         -3.320046       -2.269374   1.000000   1.000000
     85         -3.312165       -2.245704   1.000000   1.000000
     86         -3.293664       -2.229127   1.000000   1.000000
     87         -3.244345       -2.207360   1.000000   1.000000
     88         -3.229049       -2.172965   1.000000   1.000000
     89         -3.216515       -2.124165   1.000000   1.000000
     90         -3.125028       -2.112433   1.000000   1.000000
     91         -3.090659       -2.051464   1.000000   1.000000
     92         -3.068370       -1.999706   1.000000   1.000000
     93         -3.046339       -1.922108   1.000000   1.000000
     94         -3.029346       -1.904752   1.000000   1.000000
     95         -3.023463       -1.894819   1.000000   1.000000
     96         -2.999317       -1.859582   1.000000   1.000000
     97         -2.982941       -1.846693   1.000000   1.000000
     98         -2.971357       -1.809062   1.000000   1.000000
     99         -2.967013       -1.771950   1.000000   1.000000
    100         -2.941096       -1.737993   1.000000   1.000000
    101         -2.921116       -1.711999   1.000000   1.000000
    102         -2.917852       -1.694947   1.000000   1.000000
    103         -2.904922       -1.667356   1.000000   1.000000
    104         -2.893292       -1.639660   1.000000   1.000000
    105         -2.804343       -1.615844   1.000000   1.000000
    106         -2.790968       -1.600877   1.000000   1.000000
    107         -2.746351       -1.586605   1.000000   1.000000
    108         -2.714646       -1.580432   1.000000   1.000000
    109         -2.676505       -1.561147   1.000000   1.000000
    110         -2.673219       -1.530054   1.000000   1.000000
    111         -2.654796       -1.519349   1.000000   1.000000
    112         -2.635512       -1.507654   1.000000   1.000000
    113         -2.632066       -1.481280   1.000000   1.000000
    114         -2.624811       -1.450143   1.000000   1.000000
    115         -2.613160       -1.436391   1.000000   1.000000
    116         -2.609990       -1.425349   1.000000   1.000000
    117         -2.597180       -1.409480   1.000000   1.000000
    118         -2.585224       -1.389022   1.000000   1.000000
    119         -2.575782       -1.365215   1.000000   1.000000
    120         -2.570786       -1.362478   1.000000   1.000000
    121         -2.559135       -1.317622   1.000000   1.000000
    122         -2.553060       -1.301396   1.000000   1.000000
    123         -2.545263       -1.280085   1.000000   1.000000
    124         -2.531760       -1.272216   1.000000   1.000000
    125         -2.526963       -1.258871   1.000000   1.000000
    126         -2.521356       -1.234828   1.000000   1.000000
    127         -2.502766       -1.207622   1.000000   1.000000
    128         -2.485089       -1.198571   1.000000   1.000000
    129         -2.471033       -1.184651   1.000000   1.000000
    130         -2.467129       -1.176132   1.000000   1.000000
    131         -2.455196       -1.142988   1.000000   1.000000
    132         -2.433629       -1.135098   1.000000   1.000000
    133         -2.427929       -1.111972   1.000000   1.000000
    134         -2.424736       -1.094309   1.000000   1.000000
    135         -2.416160       -1.081552   1.000000   1.000000
    136         -2.402953       -1.072630   1.000000   1.000000
    137         -2.383365       -1.052407   1.000000   1.000000
    138         -2.378885       -1.039786   1.000000   1.000000
    139         -2.358623       -1.016577   1.000000   1.000000
    140         -2.353176       -1.002180   1.000000   1.000000
    141         -2.341427       -0.999024   1.000000   1.000000
    142         -2.327970       -0.989810   1.000000   1.000000
    143         -2.315131       -0.962274   1.000000   1.000000
    144         -2.292120       -0.946667   1.000000   1.000000
    145         -2.289092       -0.931860   1.000000   1.000000
    146         -2.274954       -0.923729   1.000000   1.000000
    147         -2.269766       -0.896800   1.000000   1.000000
    148         -2.251431       -0.893809   1.000000   1.000000
    149         -2.236583       -0.862730   1.000000   1.000000
    150         -2.222732       -0.853128   1.000000   1.000000
    151         -2.198597       -0.839521   1.000000   1.000000
    152         -2.182919       -0.816796   1.000000   1.000000
    153         -2.173883       -0.803116   1.000000   1.000000
    154         -2.158672       -0.786461   1.000000   1.000000
    155         -2.150801       -0.732735   1.000000   1.000000
    156         -2.142732       -0.721792   1.000000   1.000000
    157         -2.128421       -0.708036   1.000000   1.000000
    158         -2.102987       -0.689856   1.000000   1.000000
    159         -2.097906       -0.669665   1.000000   1.000000
    160         -2.087858       -0.652828   1.000000   1.000000
    161         -2.061483       -0.641784   1.000000   1.000000
    162         -2.043491       -0.639273   1.000000   1.000000
    163         -2.031453       -0.637461   1.000000   1.000000
    164         -2.023966       -0.609475   1.000000   1.000000
    165         -2.005532       -0.578645   1.000000   1.000000
    166         -2.000047       -0.569068   1.000000   1.000000
    167         -1.987100       -0.543578   1.000000   1.000000
    168         -1.958661       -0.528367   1.000000   1.000000
    169         -1.942767       -0.500533   1.000000   1.000000
    170         -1.940997       -0.470276   1.000000   1.000000
    171         -1.922376       -0.461047   1.000000   1.000000
    172         -1.910260       -0.441697   1.000000   1.000000
    173         -1.894472       -0.430940   1.000000   1.000000
    174         -1.887291       -0.417410   1.000000   1.000000
    175         -1.868976       -0.398625   1.000000   1.000000
    176         -1.855148       -0.387914   1.000000   1.000000
    177         -1.854389       -0.364245   1.000000   1.000000
    178         -1.837259       -0.357223   1.000000   1.000000
    179         -1.811590       -0.352956   1.000000   1.000000
    180         -1.796631       -0.340466   1.000000   1.000000
    181         -1.774681       -0.308552   1.000000   1.000000
    182         -1.759372       -0.303798   1.000000   1.000000
    183         -1.727645       -0.287322   1.000000   1.000000
    184         -1.718449       -0.266848   1.000000   1.000000
    185         -1.705492       -0.257648   1.000000   1.000000
    186         -1.703954       -0.222263   1.000000   1.000000
    187         -1.693428       -0.197733   1.000000   1.000000
    188         -1.675851       -0.182284   1.000000   1.000000
    189         -1.639983       -0.166023   1.000000   1.000000
    190         -1.621094       -0.142679   1.000000   1.000000
    191         -1.611602       -0.126081   1.000000   1.000000
    192         -1.598119       -0.064670   1.000000   1.000000
    193         -1.560620       -0.048377   1.000000   1.000000
    194         -1.544217       -0.032205   1.000000   1.000000
    195         -1.525974       -0.006886   1.000000   1.000000
    196         -1.520264        0.028077   1.000000   1.000000
    197         -1.483305        0.043305   1.000000   1.000000
    198         -1.469349        0.047126   1.000000   1.000000
    199         -1.450026        0.069146   1.000000   1.000000
    200         -1.439867        0.073298   1.000000   1.000000
    201         -1.434604        0.124721   1.000000   1.000000
    202         -1.416456        0.158766   1.000000   1.000000
    203         -1.393837        0.180407   1.000000   1.000000
    204         -1.375875        0.192903   1.000000   1.000000
    205         -1.371014        0.205012   1.000000   1.000000
    206         -1.344853        0.244255   1.000000   1.000000
    207         -1.330601        0.262899   1.000000   1.000000
    208         -1.314893        0.284545   1.000000   1.000000
    209         -1.306304        0.290551   1.000000   1.000000
    210         -1.253753        0.292973   1.000000   1.000000
    211         -1.230901        0.329267   1.000000   1.000001
    212         -1.223187        0.352342   1.000000   1.000002
    213         -1.204804        0.381675   1.000000   1.000007
    214         -1.202650        0.442392   1.000000   1.000085
    215         -1.184362        0.472610   1.000000   1.000252
    216         -1.164365        0.478607   1.000000   1.000309
    217         -1.154993        0.519114   1.000000   1.001127
    218         -1.130522        0.541440   1.000000   1.002140
    219         -1.125842        0.546168   1.000000   1.002435
    220         -1.101033        0.598837   1.000000   1.008672
    221         -1.081564        0.614344   1.000000   1.011850
    222         -1.073168        0.628971   1.000000   1.015465
    223         -1.065304        0.679258   1.000000   1.030288
    224         -1.041663        0.695576   1.000000   1.033994
    225         -1.005883        0.698324   1.000000   1.034434
    226         -0.991069        0.718462   1.000000   1.035084
    227         -0.959705        0.732536   1.000000   1.031747
    228         -0.946049        0.830178   1.000000   0.830668
    229         -0.936885        0.853300   1.000000   0.725581
    230         -0.909634        0.907102   1.000000   0.432074
    231         -0.894534        0.962971   1.000000   0.156789
    232         -0.870470        0.967524   1.000000   0.139173
    233         -0.850168        0.979982   1.000000   0.095623
    234         -0.835353        0.999212   1.000000   0.042017
    235         -0.820459        1.024505   1.000000  -0.004504
    236         -0.806612        1.027781   1.000000  -0.008728
    237         -0.795496        1.037708   1.000000  -0.019302
    238         -0.785999        1.057678   1.000000  -0.031814
    239         -0.771062        1.067838   1.000000  -0.034563
    240         -0.760756        1.107860   1.000000  -0.031059
    241         -0.745375        1.115717   1.000000  -0.028909
    242         -0.735657        1.131225   1.000000  -0.024236
    243         -0.717555        1.142732   1.000000  -0.020709
    244         -0.704409        1.151304   1.000000  -0.018175
    245         -0.695691        1.154333   1.000000  -0.017312
    246         -0.668611        1.191541   1.000000  -0.008610
    247         -0.660730        1.198601   1.000000  -0.007395
    248         -0.639933        1.209504   1.000000  -0.005780
    249         -0.618815        1.234823   1.000000  -0.003096
    250         -0.612174        1.257031   1.000000  -0.001690
    251         -0.604245        1.261631   1.000000  -0.001481
    252         -0.596830        1.282208   1.000000  -0.000799
    253         -0.580639        1.297571   1.000000  -0.000490
    254         -0.565278        1.312341   1.000000  -0.000300
    255         -0.552208        1.323422   1.000000  -0.000204
    256         -0.542727        1.332879   1.000000  -0.000146
    257         -0.537923        1.348835   1.000000  -0.000081
    258         -0.528255        1.385907   1.000000  -0.000019
    259         -0.518214        1.412911   1.000000  -0.000006
    260         -0.504611        1.418132   1.000000  -0.000005
    261         -0.496832        1.426854   1.000000  -0.000003
    262         -0.485683        1.450899   1.000000  -0.000001
    263         -0.480106        1.456277   1.000000  -0.000001
    264         -0.469482        1.490955   1.000000  -0.000000
    265         -0.463330        1.509725   1.000000  -0.000000
    266         -0.450510        1.515398   1.000000  -0.000000
    267         -0.446893        1.527144   1.000000  -0.000000
    268         -0.431999        1.537675   1.000000  -0.000000
    269         -0.426676        1.572025   1.000000  -0.000000
    270         -0.423017        1.574854   1.000000  -0.000000
    271         -0.397847        1.579279   1.000000  -0.000000
    272         -0.387535        1.608188   1.000000  -0.000000
    273         -0.376411        1.617183   1.000000  -0.000000
    274         -0.371588        1.631991   1.000000  -0.000000
    275         -0.360515        1.654284   1.000000  -0.000000
    276         -0.353945        1.671710   1.000000  -0.000000
    277         -0.341943        1.686317   1.000000  -0.000000
    278         -0.336122        1.689857   1.000000  -0.000000
    279         -0.332026        1.716957   1.000000  -0.000000
    280         -0.315948        1.732569   1.000000  -0.000000
    281         -0.306465        1.742593   1.000000  -0.000000
    282         -0.300699        1.761499   1.000000  -0.000000
    283         -0.286011        1.774960   1.000000  -0.000000
    284         -0.269110        1.790566   1.000000  -0.000000
    285         -0.250785        1.818680   1.000000  -0.000000
    286         -0.239640        1.844346   1.000000  -0.000000
    287         -0.230258        1.867999   1.000000  -0.000000
    288         -0.222114        1.870197   1.000000  -0.000000
    289         -0.208552        1.889720   1.000000  -0.000000
    290         -0.198664        1.907911   1.000000  -0.000000
    291         -0.184029        1.928983   1.000000  -0.000000
    292         -0.172588        1.936596   1.000000  -0.000000
    293         -0.161052        1.958243   1.000000  -0.000000
    294         -0.144752        1.970072   1.000000  -0.000000
    295         -0.129412        1.972570   1.000000  -0.000000
    296         -0.123434        1.986763   1.000000  -0.000000
    297         -0.102517        1.988081   1.000000  -0.000000
    298         -0.062456        2.009532   1.000000  -0.000000
    299         -0.048478        2.020335   1.000000  -0.000000
    300         -0.001971        2.038156   1.000000  -0.000000
    301          0.006245        2.042146   1.000000  -0.000000
    302          0.054174        2.057445   1.000000  -0.000000
    303          0.066122        2.076006   1.000000  -0.000000
    304          0.099749        2.085685   1.000000  -0.000000
    305          0.103035        2.093815   1.000000  -0.000000
    306          0.118980        2.096965   1.000000  -0.000000
    307          0.142342        2.100351   1.000000  -0.000000
    308          0.152435        2.105821   1.000000  -0.000000
    309          0.200837        2.121123   1.000000  -0.000000
    310          0.209910        2.127401   1.000000  -0.000000
    311          0.228800        2.142514   1.000000  -0.000000
    312          0.239779        2.157056   1.000000  -0.000000
    313          0.295518        2.159000   1.000000  -0.000000
    314          0.311244        2.166887   1.000000  -0.000000
    315          0.361102        2.174872   1.000003  -0.000000
    316          0.409457        2.186996   1.000023  -0.000000
    317          0.431755        2.190203   1.000056  -0.000000
    318          0.448587        2.198520   1.000107  -0.000000
    319          0.472877        2.211264   1.000254  -0.000000
    320          0.483985        2.214702   1.000371  -0.000000
    321          0.493597        2.233163   1.000509  -0.000000
    322          0.528394        2.238236   1.001481  -0.000000
    323          0.571488        2.247143   1.004662  -0.000000
    324          0.593321        2.256410   1.007706  -0.000000
    325          0.604848        2.266108   1.009823  -0.000000
    326          0.627997        2.297889   1.015206  -0.000000
    327          0.641360        2.300505   1.018939  -0.000000
    328          0.652091        2.313197   1.022166  -0.000000
    329          0.688756        2.320246   1.032643  -0.000000
    330          0.720104        2.324167   1.034884  -0.000000
    331          0.762707        2.338530   1.008169  -0.000000
    332          0.844110        2.344167   0.769699  -0.000000
    333          0.887974        2.357665   0.539695  -0.000000
    334          0.951550        2.366796   0.204784  -0.000000
    335          0.962972        2.380450   0.156784  -0.000000
    336          1.054928        2.388161  -0.030694  -0.000000
    337          1.061046        2.390036  -0.032957  -0.000000
    338          1.124220        2.411233  -0.026387  -0.000000
    339          1.139599        2.418724  -0.021660  -0.000000
    340          1.166816        2.423170  -0.013975  -0.000000
    341          1.206935        2.437903  -0.006133  -0.000000
    342          1.247838        2.454713  -0.002185  -0.000000
    343          1.273523        2.459369  -0.001043  -0.000000
    344          1.302732        2.472059  -0.000414  -0.000000
    345          1.342709        2.518831  -0.000102  -0.000000
    346          1.359071        2.536236  -0.000055  -0.000000
    347          1.363934        2.544963  -0.000045  -0.000000
    348          1.426379        2.550505  -0.000003  -0.000000
    349          1.429127        2.570117  -0.000003  -0.000000
    350          1.448071        2.577533  -0.000001  -0.000000
    351          1.474292        2.601911  -0.000000  -0.000000
    352          1.487908        2.604876  -0.000000  -0.000000
    353          1.512619        2.617547  -0.000000  -0.000000
    354          1.544251        2.641630  -0.000000  -0.000000
    355          1.572750        2.660123  -0.000000  -0.000000
    356          1.587927        2.676296  -0.000000  -0.000000
    357          1.627876        2.691655  -0.000000  -0.000000
    358          1.645913        2.705784  -0.000000  -0.000000
    359          1.656673        2.718618  -0.000000  -0.000000
    360          1.705478        2.743429  -0.000000  -0.000000
    361          1.741663        2.758637  -0.000000  -0.000000
    362          1.799819        2.783772  -0.000000  -0.000000
    363          1.819203        2.789231  -0.000000  -0.000000
    364          1.838132        2.830055  -0.000000  -0.000000
    365          1.873076        2.861835  -0.000000  -0.000000
    366          1.898757        2.911797  -0.000000  -0.000000
    367          1.932649        2.920250  -0.000000  -0.000000
    368          2.010441        2.938471  -0.000000  -0.000000
 
  0.2500000E+00  0.6721729E-20  0.0000000E+00  0.1250000E+00
      1        -42.889698      -43.441769   1.000000   1.000000
      2        -42.872926      -43.413765   1.000000   1.000000
      3        -42.859638      -43.410034   1.000000   1.000000
      4        -42.851753      -43.390963   1.000000   1.000000
      5        -42.826623      -43.377673   1.000000   1.000000
      6        -42.810811      -43.376105   1.000000   1.000000
      7        -42.790512      -43.364087   1.000000   1.000000
      8        -42.787230      -43.355522   1.000000   1.000000
      9        -42.777978      -43.351355   1.000000   1.000000
     10        -42.407697      -43.327977   1.000000   1.000000
     11        -42.334815      -43.300944   1.000000   1.000000
     12        -42.294127      -43.281524   1.000000   1.000000
     13        -42.016061      -43.260793   1.000000   1.000000
     14        -41.996371      -43.249662   1.000000   1.000000
     15        -41.961174      -43.245941   1.000000   1.000000
     16        -41.953301      -43.234227   1.000000   1.000000
     17        -41.942902      -43.227792   1.000000   1.000000
     18        -41.927700      -43.217454   1.000000   1.000000
     19        -41.927379      -43.211930   1.000000   1.000000
     20        -41.919351      -43.179723   1.000000   1.000000
     21        -41.898190      -43.129413   1.000000   1.000000
     22        -41.897068      -43.103904   1.000000   1.000000
     23        -41.878594      -43.099840   1.000000   1.000000
     24        -41.877909      -43.058586   1.000000   1.000000
     25        -41.862619      -43.033741   1.000000   1.000000
     26        -41.851760      -43.012208   1.000000   1.000000
     27        -41.837622      -42.949036   1.000000   1.000000
     28        -41.818326      -42.895598   1.000000   1.000000
     29        -41.804992      -42.852000   1.000000   1.000000
     30        -41.800296      -42.764864   1.000000   1.000000
     31        -41.795631      -41.594346   1.000000   1.000000
     32        -41.794188      -41.494537   1.000000   1.000000
     33        -41.775448      -41.441504   1.000000   1.000000
     34        -40.307205      -40.516140   1.000000   1.000000
     35        -40.263528      -40.509775   1.000000   1.000000
     36        -40.213162      -40.200233   1.000000   1.000000
     37        -40.192509      -40.084900   1.000000   1.000000
     38        -40.181209      -39.992977   1.000000   1.000000
     39        -40.141943      -39.988572   1.000000   1.000000
     40        -40.140767      -39.867483   1.000000   1.000000
     41        -40.079871      -39.800284   1.000000   1.000000
     42        -40.025286      -39.704922   1.000000   1.000000
     43         -7.194919       -7.099280   1.000000   1.000000
     44         -6.250709       -6.108767   1.000000   1.000000
     45         -6.127255       -6.015502   1.000000   1.000000
     46         -5.330548       -5.133384   1.000000   1.000000
     47         -5.214621       -5.048239   1.000000   1.000000
     48         -5.166588       -5.015363   1.000000   1.000000
     49         -4.966849       -4.724019   1.000000   1.000000
     50         -4.619561       -4.313607   1.000000   1.000000
     51         -4.587043       -4.273638   1.000000   1.000000
     52         -4.547402       -4.260912   1.000000   1.000000
     53         -4.469837       -4.222892   1.000000   1.000000
     54         -4.449895       -4.193359   1.000000   1.000000
     55         -4.357343       -3.982165   1.000000   1.000000
     56         -4.206728       -3.704503   1.000000   1.000000
     57         -4.126207       -3.538028   1.000000   1.000000
     58         -4.060692       -3.475067   1.000000   1.000000
     59         -4.051199       -3.429852   1.000000   1.000000
     60         -3.963806       -3.403384   1.000000   1.000000
     61         -3.932039       -3.382006   1.000000   1.000000
     62         -3.891817       -3.340330   1.000000   1.000000
     63         -3.866992       -3.301882   1.000000   1.000000
     64         -3.839857       -3.241483   1.000000   1.000000
     65         -3.805574       -2.989594   1.000000   1.000000
     66         -3.743711       -2.959001   1.000000   1.000000
     67         -3.732826       -2.907817   1.000000   1.000000
     68         -3.645202       -2.865965   1.000000   1.000000
     69         -3.619855       -2.762032   1.000000   1.000000
     70         -3.610990       -2.720064   1.000000   1.000000
     71         -3.601073       -2.689491   1.000000   1.000000
     72         -3.566596       -2.672179   1.000000   1.000000
     73         -3.558646       -2.628607   1.000000   1.000000
     74         -3.539582       -2.617060   1.000000   1.000000
     75         -3.499011       -2.570727   1.000000   1.000000
     76         -3.464867       -2.543459   1.000000   1.000000
     77         -3.410269       -2.509071   1.000000   1.000000
     78         -3.379646       -2.460874   1.000000   1.000000
     79         -3.367748       -2.439849   1.000000   1.000000
     80         -3.332007       -2.402442   1.000000   1.000000
     81         -3.317283       -2.355351   1.000000   1.000000
     82         -3.314877       -2.310487   1.000000   1.000000
     83         -3.299433       -2.285849   1.000000   1.000000
     84         -3.283985       -2.245355   1.000000   1.000000
     85         -3.272459       -2.224826   1.000000   1.000000
     86         -3.264374       -2.173165   1.000000   1.000000
     87         -3.240386       -2.151690   1.000000   1.000000
     88         -3.230759       -2.129252   1.000000   1.000000
     89         -3.207958       -2.104266   1.000000   1.000000
     90         -3.193322       -2.064996   1.000000   1.000000
     91         -3.162627       -2.023911   1.000000   1.000000
     92         -3.151546       -2.009820   1.000000   1.000000
     93         -3.102141       -2.002803   1.000000   1.000000
     94         -3.089006       -1.971502   1.000000   1.000000
     95         -3.077998       -1.948491   1.000000   1.000000