       N       E                     dE             d eps       ncg     rms          rms(c)
DAV:   1    -0.509463447680E+03   -0.50946E+03   -0.27281E-05 10488   0.251E-02    0.464E-02
DAV:   2    -0.509463506573E+03   -0.58893E-04   -0.16009E-04 11368   0.724E-02    0.101E-01
DAV:   3    -0.509463465754E+03    0.40819E-04   -0.30770E-04 10144   0.858E-02    0.727E-02
DAV:   4    -0.509463448462E+03    0.17292E-04   -0.36325E-05 10736   0.278E-02    0.386E-02
DAV:   5    -0.509463449861E+03   -0.13989E-05   -0.85738E-06  8672   0.111E-02
   1 F= -.50946345E+03 E0= -.50946874E+03  d E =-.509463E+03  mag=   103.3311
       N       E                     dE             d eps       ncg     rms          rms(c)
DAV:   1    -0.509165795760E+03    0.29765E+00   -0.28463E+01 17040   0.150E+01    0.314E+00
DAV:   2    -0.509497454486E+03   -0.33166E+00   -0.30166E+00 15592   0.374E+00    0.267E+00
DAV:   3    -0.509788836207E+03   -0.29138E+00   -0.10720E+00 24880   0.520E+00    0.708E+00
DAV:   4    -0.509503147266E+03    0.28569E+00   -0.83416E-01 27248   0.402E+00    0.173E+00
DAV:   5    -0.509525156253E+03   -0.22009E-01   -0.34490E-02 25184   0.798E-01    0.151E+00
DAV:   6    -0.509542402313E+03   -0.17246E-01   -0.24717E-02 24744   0.103E+00    0.148E+00
DAV:   7    -0.509538841974E+03    0.35603E-02   -0.24075E-02 23856   0.869E-01    0.490E-01
DAV:   8    -0.509539319642E+03   -0.47767E-03   -0.38615E-03 21728   0.190E-01    0.424E-01
DAV:   9    -0.509539313670E+03    0.59721E-05   -0.76702E-04 21536   0.114E-01    0.393E-01
DAV:  10    -0.509539071874E+03    0.24180E-03   -0.66281E-04 24144   0.976E-02    0.300E-01
DAV:  11    -0.509538832153E+03    0.23972E-03   -0.90762E-04 25432   0.116E-01    0.201E-01
DAV:  12    -0.509538844663E+03   -0.12510E-04   -0.35899E-04 22488   0.598E-02    0.169E-01
DAV:  13    -0.509538897745E+03   -0.53082E-04   -0.16482E-04 23240   0.518E-02    0.113E-01
DAV:  14    -0.509538967278E+03   -0.69533E-04   -0.12110E-04 21984   0.418E-02    0.767E-02
DAV:  15    -0.509538978163E+03   -0.10885E-04   -0.24347E-05 11128   0.288E-02    0.652E-02
DAV:  16    -0.509538980526E+03   -0.23634E-05   -0.17841E-05  9112   0.173E-02
   2 F= -.50953898E+03 E0= -.50954477E+03  d E =-.755307E-01  mag=   103.1288
       N       E                     dE             d eps       ncg     rms          rms(c)
DAV:   1    -0.509150469686E+03    0.38851E+00   -0.32085E+01 17040   0.159E+01    0.335E+00
DAV:   2    -0.509530477492E+03   -0.38001E+00   -0.33936E+00 15776   0.408E+00    0.309E+00
DAV:   3    -0.509815918994E+03   -0.28544E+00   -0.12087E+00 24568   0.563E+00    0.712E+00
DAV:   4    -0.509529372276E+03    0.28655E+00   -0.81976E-01 26984   0.404E+00    0.181E+00
DAV:   5    -0.509553603158E+03   -0.24231E-01   -0.36651E-02 24784   0.837E-01    0.159E+00
DAV:   6    -0.509573332350E+03   -0.19729E-01   -0.28044E-02 24312   0.112E+00    0.157E+00
DAV:   7    -0.509569059296E+03    0.42731E-02   -0.25461E-02 23864   0.906E-01    0.529E-01
DAV:   8    -0.509569517031E+03   -0.45774E-03   -0.43889E-03 22688   0.206E-01    0.443E-01
DAV:   9    -0.509569571017E+03   -0.53986E-04   -0.85237E-04 20352   0.121E-01    0.415E-01
DAV:  10    -0.509569370279E+03    0.20074E-03   -0.76442E-04 23408   0.102E-01    0.324E-01
DAV:  11    -0.509569087394E+03    0.28288E-03   -0.10122E-03 25464   0.127E-01    0.213E-01
DAV:  12    -0.509569127819E+03   -0.40426E-04   -0.38507E-04 22424   0.630E-02    0.181E-01
DAV:  13    -0.509569194639E+03   -0.66819E-04   -0.18060E-04 23200   0.548E-02    0.124E-01
DAV:  14    -0.509569275111E+03   -0.80473E-04   -0.13967E-04 22512   0.454E-02    0.795E-02
DAV:  15    -0.509569289182E+03   -0.14071E-04   -0.28655E-05 12056   0.305E-02    0.673E-02
DAV:  16    -0.509569291839E+03   -0.26566E-05   -0.17142E-05  8992   0.158E-02
   3 F= -.50956929E+03 E0= -.50957568E+03  d E =-.105842E+00  mag=   102.8947
       N       E                     dE             d eps       ncg     rms          rms(c)
DAV:   1    -0.509445904321E+03    0.12338E+00   -0.98900E+00 17936   0.906E+00    0.177E+00
DAV:   2    -0.509578399615E+03   -0.13250E+00   -0.12119E+00 16872   0.224E+00    0.158E+00
DAV:   3    -0.509667474027E+03   -0.89074E-01   -0.39555E-01 26736   0.304E+00    0.394E+00
DAV:   4    -0.509576793549E+03    0.90680E-01   -0.23101E-01 27568   0.227E+00    0.927E-01
DAV:   5    -0.509583134778E+03   -0.63412E-02   -0.71576E-03 25360   0.454E-01    0.803E-01
DAV:   6    -0.509587499185E+03   -0.43644E-02   -0.85786E-03 24016   0.569E-01    0.507E-01
DAV:   7    -0.509587484124E+03    0.15061E-04   -0.38006E-03 23272   0.317E-01    0.197E-01
DAV:   8    -0.509587513763E+03   -0.29639E-04   -0.63939E-04 17656   0.775E-02    0.182E-01
DAV:   9    -0.509587452162E+03    0.61601E-04   -0.13337E-04 21336   0.471E-02    0.156E-01
DAV:  10    -0.509587347460E+03    0.10470E-03   -0.35835E-04 23920   0.731E-02    0.980E-02
DAV:  11    -0.509587349467E+03   -0.20076E-05   -0.10739E-04 18160   0.334E-02    0.861E-02
DAV:  12    -0.509587356474E+03   -0.70069E-05   -0.18274E-05  9560   0.240E-02
   4 F= -.50958736E+03 E0= -.50959376E+03  d E =-.180646E-01  mag=   102.8658
       N       E                     dE             d eps       ncg     rms          rms(c)
DAV:   1    -0.508336140149E+03    0.12512E+01   -0.89383E+01 17936   0.271E+01    0.588E+00
DAV:   2    -0.509585460114E+03   -0.12493E+01   -0.10942E+01 19680   0.748E+00    0.592E+00
DAV:   3    -0.510359768111E+03   -0.77431E+00   -0.39035E+00 26824   0.100E+01    0.119E+01
DAV:   4    -0.509520644375E+03    0.83912E+00   -0.17385E+00 26696   0.716E+00    0.292E+00
DAV:   5    -0.509563006689E+03   -0.42362E-01   -0.77573E-02 22896   0.137E+00    0.244E+00
DAV:   6    -0.509588646593E+03   -0.25640E-01   -0.59209E-02 22216   0.156E+00    0.187E+00
DAV:   7    -0.509610093277E+03   -0.21447E-01   -0.25539E-02 22136   0.692E-01    0.916E-01
DAV:   8    -0.509609217778E+03    0.87550E-03   -0.12386E-02 23984   0.456E-01    0.578E-01
DAV:   9    -0.509609065846E+03    0.15193E-03   -0.24903E-03 17808   0.178E-01    0.534E-01
DAV:  10    -0.509608502256E+03    0.56359E-03   -0.81394E-04 24464   0.131E-01    0.453E-01
DAV:  11    -0.509607780055E+03    0.72220E-03   -0.23437E-03 24944   0.180E-01    0.321E-01
DAV:  12    -0.509607525159E+03    0.25490E-03   -0.14237E-03 23032   0.133E-01    0.230E-01
DAV:  13    -0.509607563600E+03   -0.38441E-04   -0.35061E-04 22224   0.648E-02    0.191E-01
DAV:  14    -0.509607675052E+03   -0.11145E-03   -0.20156E-04 22968   0.474E-02    0.114E-01
DAV:  15    -0.509607758395E+03   -0.83343E-04   -0.74631E-05 18480   0.374E-02    0.962E-02
DAV:  16    -0.509607784707E+03   -0.26311E-04   -0.25980E-05 10808   0.256E-02    0.855E-02
DAV:  17    -0.509607805922E+03   -0.21215E-04   -0.47483E-05 14088   0.289E-02    0.514E-02
DAV:  18    -0.509607823629E+03   -0.17708E-04   -0.62758E-05 15216   0.249E-02    0.359E-02
DAV:  19    -0.509607827667E+03   -0.40376E-05   -0.15542E-05  8528   0.145E-02
   5 F= -.50960783E+03 E0= -.50961434E+03  d E =-.385358E-01  mag=   102.7945
       N       E                     dE             d eps       ncg     rms          rms(c)
DAV:   1    -0.509596251950E+03    0.11572E-01   -0.83231E-01 17944   0.263E+00    0.505E-01
DAV:   2    -0.509606983589E+03   -0.10732E-01   -0.10060E-01 15520   0.608E-01    0.390E-01
DAV:   3    -0.509615405693E+03   -0.84221E-02   -0.30171E-02 26680   0.840E-01    0.117E+00
DAV:   4    -0.509607111964E+03    0.82937E-02   -0.22634E-02 27560   0.683E-01    0.266E-01
DAV:   5    -0.509607783416E+03   -0.67145E-03   -0.64566E-04 25296   0.127E-01    0.234E-01
DAV:   6    -0.509608109325E+03   -0.32591E-03   -0.79306E-04 24552   0.177E-01    0.151E-01
DAV:   7    -0.509608056355E+03    0.52970E-04   -0.37441E-04 23248   0.103E-01    0.590E-02
DAV:   8    -0.509608063179E+03   -0.68235E-05   -0.55938E-05 16032   0.233E-02
   6 F= -.50960806E+03 E0= -.50961456E+03  d E =-.387713E-01  mag=   102.8004
       N       E                     dE             d eps       ncg     rms          rms(c)
DAV:   1    -0.509498803652E+03    0.10925E+00   -0.89340E+00 17384   0.834E+00    0.164E+00
DAV:   2    -0.509598899996E+03   -0.10010E+00   -0.94467E-01 15384   0.187E+00    0.108E+00
DAV:   3    -0.509611103481E+03   -0.12203E-01   -0.39616E-02 27152   0.684E-01    0.123E+00
DAV:   4    -0.509614935666E+03   -0.38322E-02   -0.62246E-02 26936   0.117E+00    0.139E+00
DAV:   5    -0.509612682750E+03    0.22529E-02   -0.24088E-02 27080   0.794E-01    0.547E-01
DAV:   6    -0.509615181666E+03   -0.24989E-02   -0.58182E-03 25824   0.485E-01    0.448E-01
DAV:   7    -0.509614502154E+03    0.67951E-03   -0.25526E-03 24144   0.302E-01    0.201E-01
DAV:   8    -0.509614499882E+03    0.22714E-05   -0.52528E-04 19848   0.828E-02    0.178E-01
DAV:   9    -0.509614432859E+03    0.67023E-04   -0.15403E-04 20328   0.468E-02    0.149E-01
DAV:  10    -0.509614343627E+03    0.89232E-04   -0.27094E-04 22832   0.579E-02    0.951E-02
DAV:  11    -0.509614335502E+03    0.81245E-05   -0.12379E-04 19432   0.333E-02    0.796E-02
DAV:  12    -0.509614342854E+03   -0.73514E-05   -0.41866E-05 11088   0.287E-02
   7 F= -.50961434E+03 E0= -.50962086E+03  d E =-.627968E-02  mag=   102.7405
       N       E                     dE             d eps       ncg     rms          rms(c)
DAV:   1    -0.509581296294E+03    0.33039E-01   -0.26027E+00 17416   0.449E+00    0.888E-01
DAV:   2    -0.509610374511E+03   -0.29078E-01   -0.27397E-01 15416   0.101E+00    0.607E-01
DAV:   3    -0.509626394937E+03   -0.16020E-01   -0.48263E-02 27880   0.100E+00    0.157E+00
DAV:   4    -0.509612281722E+03    0.14113E-01   -0.44732E-02 27640   0.997E-01    0.511E-01
DAV:   5    -0.509614507832E+03   -0.22261E-02   -0.29396E-03 24904   0.293E-01    0.304E-01
DAV:   6    -0.509614841109E+03   -0.33328E-03   -0.16566E-03 24848   0.265E-01    0.199E-01
DAV:   7    -0.509614795795E+03    0.45313E-04   -0.47845E-04 23368   0.127E-01    0.117E-01
DAV:   8    -0.509614796694E+03   -0.89845E-06   -0.10373E-04 17576   0.391E-02    0.106E-01
DAV:   9    -0.509614780707E+03    0.15986E-04   -0.30444E-05 12000   0.237E-02    0.873E-02
DAV:  10    -0.509614773575E+03    0.71323E-05   -0.12570E-04 21288   0.334E-02    0.551E-02
DAV:  11    -0.509614777603E+03   -0.40283E-05   -0.28632E-05 11304   0.187E-02
   8 F= -.50961478E+03 E0= -.50962131E+03  d E =-.671442E-02  mag=   102.7071
       N       E                     dE             d eps       ncg     rms          rms(c)
DAV:   1    -0.509613117339E+03    0.16562E-02   -0.13607E-01 17424   0.103E+00    0.203E-01
DAV:   2    -0.509615045942E+03   -0.19286E-02   -0.15236E-02 20688   0.302E-01    0.294E-01
DAV:   3    -0.509615080552E+03   -0.34610E-04   -0.45561E-03 24376   0.333E-01    0.290E-01
DAV:   4    -0.509614740812E+03    0.33974E-03   -0.10609E-03 21544   0.154E-01    0.109E-01
DAV:   5    -0.509614847376E+03   -0.10656E-03   -0.11258E-04 19160   0.651E-02    0.987E-02
DAV:   6    -0.509614896234E+03   -0.48858E-04   -0.14683E-04 20672   0.745E-02    0.363E-02
DAV:   7    -0.509614897628E+03   -0.13947E-05   -0.21973E-05 10384   0.205E-02
   9 F= -.50961490E+03 E0= -.50962142E+03  d E =-.683445E-02  mag=   102.7156
       N       E                     dE             d eps       ncg     rms          rms(c)
DAV:   1    -0.509613636774E+03    0.12595E-02   -0.97721E-02 17440   0.871E-01    0.168E-01
DAV:   2    -0.509614790715E+03   -0.11539E-02   -0.10442E-02 16624   0.214E-01    0.163E-01
DAV:   3    -0.509615380559E+03   -0.58984E-03   -0.30304E-03 25128   0.271E-01    0.336E-01
DAV:   4    -0.509614758107E+03    0.62245E-03   -0.16164E-03 17200   0.188E-01    0.949E-02
DAV:   5    -0.509614867043E+03   -0.10894E-03   -0.10442E-04 20008   0.430E-02    0.752E-02
DAV:   6    -0.509614893087E+03   -0.26044E-04   -0.10347E-04 18032   0.699E-02    0.595E-02
DAV:   7    -0.509614884662E+03    0.84244E-05   -0.19271E-05 10056   0.259E-02
  10 F= -.50961488E+03 E0= -.50962141E+03  d E =-.682148E-02  mag=   102.7224
       N       E                     dE             d eps       ncg     rms          rms(c)
DAV:   1    -0.509604796442E+03    0.10097E-01   -0.90287E-01 17072   0.262E+00    0.542E-01
DAV:   2    -0.509614288806E+03   -0.94924E-02   -0.88648E-02 15368   0.635E-01    0.392E-01
DAV:   3    -0.509622302060E+03   -0.80133E-02   -0.25617E-02 27504   0.750E-01    0.114E+00
DAV:   4    -0.509614823671E+03    0.74784E-02   -0.22203E-02 27648   0.703E-01    0.308E-01
DAV:   5    -0.509615625969E+03   -0.80230E-03   -0.13387E-03 25616   0.216E-01    0.255E-01
DAV:   6    -0.509615801932E+03   -0.17596E-03   -0.69412E-04 24264   0.171E-01    0.116E-01
DAV:   7    -0.509615852165E+03   -0.50233E-04   -0.23180E-04 21680   0.704E-02    0.744E-02
DAV:   8    -0.509615847087E+03    0.50784E-05   -0.36934E-05 12288   0.303E-02
  11 F= -.50961585E+03 E0= -.50962245E+03  d E =-.962424E-03  mag=   102.7112
       N       E                     dE             d eps       ncg     rms          rms(c)
DAV:   1    -0.509597788856E+03    0.18063E-01   -0.14854E+00 17072   0.336E+00    0.691E-01
DAV:   2    -0.509613233881E+03   -0.15445E-01   -0.14554E-01 15376   0.792E-01    0.470E-01
DAV:   3    -0.509615059527E+03   -0.18256E-02   -0.55493E-03 25720   0.302E-01    0.493E-01
DAV:   4    -0.509616836502E+03   -0.17770E-02   -0.12683E-02 27208   0.546E-01    0.696E-01
DAV:   5    -0.509615448755E+03    0.13877E-02   -0.62531E-03 26904   0.350E-01    0.322E-01
DAV:   6    -0.509615972260E+03   -0.52351E-03   -0.10616E-03 25936   0.202E-01    0.189E-01
DAV:   7    -0.509615927053E+03    0.45207E-04   -0.57448E-04 23168   0.126E-01    0.118E-01
DAV:   8    -0.509615923444E+03    0.36092E-05   -0.10240E-04 17744   0.375E-02    0.110E-01
DAV:   9    -0.509615907038E+03    0.16406E-04   -0.42664E-05 13520   0.233E-02    0.913E-02
DAV:  10    -0.509615867853E+03    0.39185E-04   -0.11185E-04 17840   0.426E-02    0.586E-02
DAV:  11    -0.509615870834E+03   -0.29808E-05   -0.65335E-05 15744   0.216E-02
  12 F= -.50961587E+03 E0= -.50962258E+03  d E =-.986172E-03  mag=   102.6914
       N       E                     dE             d eps       ncg     rms          rms(c)
DAV:   1    -0.509614066983E+03    0.18009E-02   -0.15805E-01 17072   0.109E+00    0.225E-01
DAV:   2    -0.509615730763E+03   -0.16638E-02   -0.15512E-02 15400   0.260E-01    0.156E-01
DAV:   3    -0.509616481622E+03   -0.75086E-03   -0.21950E-03 26176   0.230E-01    0.337E-01
DAV:   4    -0.509615856019E+03    0.62560E-03   -0.22303E-03 22504   0.224E-01    0.141E-01
DAV:   5    -0.509615965442E+03   -0.10942E-03   -0.15204E-04 19800   0.608E-02    0.107E-01
DAV:   6    -0.509616027211E+03   -0.61769E-04   -0.15598E-04 21712   0.804E-02    0.567E-02
DAV:   7    -0.509616025234E+03    0.19764E-05   -0.47132E-05 14656   0.344E-02
  13 F= -.50961603E+03 E0= -.50962270E+03  d E =-.114057E-02  mag=   102.6966
       N       E                     dE             d eps       ncg     rms          rms(c)
DAV:   1    -0.509614603873E+03    0.14233E-02   -0.11657E-01 17064   0.937E-01    0.192E-01
DAV:   2    -0.509615813233E+03   -0.12094E-02   -0.11483E-02 15424   0.224E-01    0.136E-01
DAV:   3    -0.509616231589E+03   -0.41836E-03   -0.13238E-03 24072   0.164E-01    0.261E-01
DAV:   4    -0.509615916883E+03    0.31471E-03   -0.14249E-03 21032   0.178E-01    0.129E-01
DAV:   5    -0.509615983106E+03   -0.66222E-04   -0.17642E-04 14504   0.838E-02    0.964E-02
DAV:   6    -0.509616012391E+03   -0.29285E-04   -0.10727E-04 21168   0.640E-02    0.492E-02
DAV:   7    -0.509616015188E+03   -0.27965E-05   -0.36400E-05 12928   0.304E-02
  14 F= -.50961602E+03 E0= -.50962266E+03  d E =-.113053E-02  mag=   102.7013
       N       E                     dE             d eps       ncg     rms          rms(c)
DAV:   1    -0.509610223459E+03    0.57889E-02   -0.45652E-01 17208   0.188E+00    0.398E-01
DAV:   2    -0.509615397305E+03   -0.51738E-02   -0.48271E-02 15360   0.423E-01    0.262E-01
DAV:   3    -0.509615875728E+03   -0.47842E-03   -0.14067E-03 24832   0.104E-01    0.224E-01
DAV:   4    -0.509617376750E+03   -0.15010E-02   -0.46596E-03 26592   0.308E-01    0.501E-01
DAV:   5    -0.509616404826E+03    0.97192E-03   -0.59623E-03 23672   0.370E-01    0.217E-01
DAV:   6    -0.509616338238E+03    0.66588E-04   -0.72096E-04 19680   0.164E-01    0.697E-02
DAV:   7    -0.509616347088E+03   -0.88507E-05   -0.17501E-04 21448   0.452E-02    0.421E-02
DAV:   8    -0.509616346334E+03    0.75449E-06   -0.12090E-05  9024   0.152E-02
  15 F= -.50961635E+03 E0= -.50962302E+03  d E =-.331146E-03  mag=   102.7022
