srun: ROUTE: split_hostlist: hl=e04r3n03 tree_width 0
 running on    4 total cores
 distrk:  each k-point on    1 cores,    4 groups
 distr:  one band on    1 cores,    1 groups
 HIP runtime initialized ...    4 DCUs will be used
 Created    4 streams on each DCU
 vasp.6.3.2 27Jun22 (build Mar 15 2023 15:45:48) complex                        
  
 POSCAR found type information on POSCAR FeCr
 POSCAR found :  2 types and      63 ions
 Reading from existing POTCAR
 -----------------------------------------------------------------------------
|                                                                             |
|           W    W    AA    RRRRR   N    N  II  N    N   GGGG   !!!           |
|           W    W   A  A   R    R  NN   N  II  NN   N  G    G  !!!           |
|           W    W  A    A  R    R  N N  N  II  N N  N  G       !!!           |
|           W WW W  AAAAAA  RRRRR   N  N N  II  N  N N  G  GGG   !            |
|           WW  WW  A    A  R   R   N   NN  II  N   NN  G    G                |
|           W    W  A    A  R    R  N    N  II  N    N   GGGG   !!!           |
|                                                                             |
|     You use a magnetic or noncollinear calculation, but did not specify     |
|     the initial magnetic moment with the MAGMOM tag. Note that a            |
|     default of 1 will be used for all atoms. This ferromagnetic setup       |
|     may break the symmetry of the crystal, in particular it may rule        |
|     out finding an antiferromagnetic solution. Thence, we recommend         |
|     setting the initial magnetic moment manually or verifying carefully     |
|     that this magnetic setup is desired.                                    |
|                                                                             |
 -----------------------------------------------------------------------------

 scaLAPACK will be used selectively (only on CPU)
 Reading from existing POTCAR
 LDA part: xc-table for Pade appr. of Perdew
 POSCAR found type information on POSCAR FeCr
 POSCAR found :  2 types and      63 ions
 Optimize memory usage for KPAR
 POSCAR, INCAR and KPOINTS ok, starting setup
 FFT: planning ... GRIDC
 FFT: planning ... GRID_SOFT
 FFT: planning ... GRID
 WAVECAR not read
 entering main loop
       N       E                     dE             d eps       ncg     rms          rms(c)
DAV:   1     0.545241150989E+04    0.54524E+04   -0.23898E+05 15584   0.143E+03
DAV:   2    -0.942542909321E+02   -0.55467E+04   -0.53501E+04 14720   0.420E+02
DAV:   3    -0.528915369214E+03   -0.43466E+03   -0.38490E+03 15136   0.159E+02
DAV:   4    -0.586330264353E+03   -0.57415E+02   -0.53727E+02 26016   0.442E+01
DAV:   5    -0.589531786183E+03   -0.32015E+01   -0.30255E+01 24096   0.999E+00    0.941E+01
DAV:   6    -0.703508551449E+03   -0.11398E+03   -0.33889E+02 26792   0.828E+01    0.151E+02
DAV:   7    -0.640575056278E+03    0.62933E+02   -0.27101E+02 27392   0.973E+01    0.137E+02
DAV:   8    -0.561740147394E+03    0.78835E+02   -0.13331E+02 26928   0.690E+01    0.936E+01
DAV:   9    -0.534547691019E+03    0.27192E+02   -0.65291E+01 25104   0.374E+01    0.701E+01
DAV:  10    -0.515545009638E+03    0.19003E+02   -0.48728E+01 24032   0.283E+01    0.562E+01
DAV:  11    -0.500726851568E+03    0.14818E+02   -0.63058E+01 21120   0.298E+01    0.465E+01
DAV:  12    -0.496559649204E+03    0.41672E+01   -0.24384E+01 21600   0.196E+01    0.368E+01
DAV:  13    -0.497380984932E+03   -0.82134E+00   -0.52483E+00 21784   0.968E+00    0.368E+01
DAV:  14    -0.497545981190E+03   -0.16500E+00   -0.87202E-01 17928   0.316E+00    0.367E+01
DAV:  15    -0.497757678410E+03   -0.21170E+00   -0.23275E-01 27224   0.146E+00    0.383E+01
DAV:  16    -0.498281230061E+03   -0.52355E+00   -0.10643E-01 26368   0.123E+00    0.382E+01
DAV:  17    -0.499935145219E+03   -0.16539E+01   -0.23845E+00 25512   0.514E+00    0.322E+01
DAV:  18    -0.505314516250E+03   -0.53794E+01   -0.65998E+00 24960   0.963E+00    0.313E+01
DAV:  19    -0.505495614850E+03   -0.18110E+00   -0.42505E+00 25408   0.822E+00    0.224E+01
DAV:  20    -0.506209884949E+03   -0.71427E+00   -0.16229E+00 23824   0.509E+00    0.220E+01
DAV:  21    -0.506518872703E+03   -0.30899E+00   -0.81140E-01 24496   0.333E+00    0.195E+01
DAV:  22    -0.507156393561E+03   -0.63752E+00   -0.16775E+00 25544   0.447E+00    0.168E+01
DAV:  23    -0.507245670868E+03   -0.89277E-01   -0.83326E-01 25520   0.362E+00    0.137E+01
DAV:  24    -0.507623464195E+03   -0.37779E+00   -0.84523E-01 25992   0.292E+00    0.125E+01
DAV:  25    -0.507870639744E+03   -0.24718E+00   -0.53775E-01 26120   0.239E+00    0.109E+01
DAV:  26    -0.508105973398E+03   -0.23533E+00   -0.41546E-01 25048   0.174E+00    0.100E+01
DAV:  27    -0.508425627226E+03   -0.31965E+00   -0.45488E-01 26240   0.239E+00    0.930E+00
DAV:  28    -0.508597308532E+03   -0.17168E+00   -0.25109E-01 24824   0.153E+00    0.868E+00
DAV:  29    -0.508802288938E+03   -0.20498E+00   -0.21047E-01 25664   0.131E+00    0.813E+00
DAV:  30    -0.509033953007E+03   -0.23166E+00   -0.31869E-01 25688   0.166E+00    0.730E+00
DAV:  31    -0.509353408756E+03   -0.31946E+00   -0.84348E-01 25064   0.230E+00    0.560E+00
DAV:  32    -0.509366112011E+03   -0.12703E-01   -0.70562E-01 23680   0.229E+00    0.466E+00
DAV:  33    -0.509385306482E+03   -0.19194E-01   -0.11247E-01 21112   0.133E+00    0.412E+00
DAV:  34    -0.509391582458E+03   -0.62760E-02   -0.67498E-02 24936   0.940E-01    0.344E+00
DAV:  35    -0.509395497889E+03   -0.39154E-02   -0.29326E-01 24592   0.131E+00    0.292E+00
DAV:  36    -0.509429383745E+03   -0.33886E-01   -0.73453E-02 22648   0.919E-01    0.237E+00
DAV:  37    -0.509442863163E+03   -0.13479E-01   -0.64416E-02 25752   0.801E-01    0.183E+00
DAV:  38    -0.509451628538E+03   -0.87654E-02   -0.39009E-02 25080   0.571E-01    0.159E+00
DAV:  39    -0.509457225015E+03   -0.55965E-02   -0.23260E-02 25792   0.491E-01    0.125E+00
DAV:  40    -0.509459027953E+03   -0.18029E-02   -0.10796E-02 24160   0.389E-01    0.959E-01
DAV:  41    -0.509460731489E+03   -0.17035E-02   -0.10914E-02 24872   0.296E-01    0.775E-01
DAV:  42    -0.509461351501E+03   -0.62001E-03   -0.37506E-03 23752   0.242E-01    0.609E-01
DAV:  43    -0.509462094325E+03   -0.74282E-03   -0.39748E-03 24600   0.200E-01    0.487E-01
DAV:  44    -0.509462690275E+03   -0.59595E-03   -0.25300E-03 25368   0.162E-01    0.434E-01
DAV:  45    -0.509463046858E+03   -0.35658E-03   -0.83346E-04 24808   0.108E-01    0.370E-01
DAV:  46    -0.509463210824E+03   -0.16397E-03   -0.13378E-03 25616   0.112E-01    0.251E-01
DAV:  47    -0.509463259290E+03   -0.48466E-04   -0.53963E-04 24160   0.706E-02    0.186E-01
DAV:  48    -0.509463319930E+03   -0.60641E-04   -0.29876E-04 24688   0.512E-02    0.139E-01
DAV:  49    -0.509463363374E+03   -0.43444E-04   -0.26186E-04 24936   0.508E-02    0.108E-01
DAV:  50    -0.509463398874E+03   -0.35500E-04   -0.11612E-04 20800   0.323E-02    0.867E-02
DAV:  51    -0.509463416643E+03   -0.17769E-04   -0.41786E-05 12680   0.331E-02    0.753E-02
DAV:  52    -0.509463432037E+03   -0.15394E-04   -0.14085E-04 22744   0.399E-02    0.603E-02
DAV:  53    -0.509463436863E+03   -0.48260E-05   -0.21482E-05 10480   0.177E-02
   1 F= -.50946344E+03 E0= -.50946874E+03  d E =-.509463E+03  mag=   103.3339
 curvature:   0.00 expect dE= 0.000E+00 dE for cont linesearch  0.000E+00
 trial: gam= 0.00000 g(F)=  0.974E-01 g(S)=  0.000E+00 ort = 0.000E+00 (trialstep = 0.100E+01)
 search vector abs. value=  0.974E-01
 writing wavefunctions
 PROFILE, used timers:     229
