<?xml version="1.0" encoding="ISO-8859-1"?>
<modeling>
 <generator>
  <i name="program" type="string">vasp </i>
  <i name="version" type="string">6.3.2  </i>
  <i name="subversion" type="string">27Jun22 (build Mar 15 2023 15:45:48) complex                          parallel </i>
  <i name="platform" type="string">LinuxIFC </i>
  <i name="date" type="string">2025 02 07 </i>
  <i name="time" type="string">23:16:56 </i>
 </generator>
 <incar>
  <i type="string" name="SYSTEM">ni3al</i>
  <i type="int" name="ISTART">     1</i>
  <i type="string" name="PREC">Accurate</i>
  <i type="string" name="ALGO">Normal</i>
  <i type="int" name="ISPIN">     2</i>
  <i type="int" name="IMIX">     4</i>
  <i name="AMIX">      0.05000000</i>
  <i name="BMIX">      0.00010000</i>
  <i name="AMIN">      0.01000000</i>
  <i type="int" name="ICHARG">     1</i>
  <i type="int" name="NELM">   150</i>
  <i type="int" name="IBRION">     2</i>
  <i name="EDIFF">      0.00001000</i>
  <i name="EDIFFG">     -0.02000000</i>
  <i type="int" name="NSW">   300</i>
  <i type="int" name="ISIF">     2</i>
  <i name="ENCUT">    450.00000000</i>
  <i type="string" name="LREAL">Auto</i>
  <i type="int" name="ISMEAR">     1</i>
  <i name="SIGMA">      0.15000000</i>
  <i type="int" name="LMAXMIX">     4</i>
  <i type="logical" name="LWAVE"> F  </i>
  <i type="logical" name="LCHARG"> F  </i>
  <i type="logical" name="LDIPOL"> T  </i>
  <i type="int" name="IDIPOL">     3</i>
 </incar>
 <primitive_cell>
  <structure name="primitive_cell" >
   <crystal>
    <varray name="basis" >
     <v>       8.53269958       0.00000000       0.00000000 </v>
     <v>      -0.00051933       8.49699972       0.00000000 </v>
     <v>       0.00000000       0.00000000      23.59499931 </v>
    </varray>
    <i name="volume">   1710.69280467 </i>
    <varray name="rec_basis" >
     <v>       0.11719620       0.00000716       0.00000000 </v>
     <v>       0.00000000       0.11768860       0.00000000 </v>
     <v>       0.00000000       0.00000000       0.04238186 </v>
    </varray>
   </crystal>
   <varray name="positions" >
    <v>       0.00086000       0.99993000       0.24271000 </v>
    <v>       0.16645303       0.16679269       0.30354591 </v>
    <v>       0.50234708       0.16778972       0.30364080 </v>
    <v>       0.66822000       0.00107000       0.24272000 </v>
    <v>       0.83315016       0.16811597       0.30355775 </v>
    <v>       0.00044000       0.33497000       0.24240000 </v>
    <v>       0.16748000       0.50058605       0.30394903 </v>
    <v>       0.33469000       0.33305000       0.24267000 </v>
    <v>       0.50136879       0.49952602       0.30346556 </v>
    <v>       0.83313861       0.50196246       0.30308510 </v>
    <v>       0.16821137       0.83313439       0.30394853 </v>
    <v>       0.33342000       0.66555000       0.24261000 </v>
    <v>       0.83472974       0.83254651       0.30306878 </v>
    <v>       0.00064000       0.00119000       0.00199000 </v>
    <v>       0.00006150       0.99986505       0.36307309 </v>
    <v>       0.16843000       0.16962000       0.06269000 </v>
    <v>       0.33460000       0.00297000       0.00254000 </v>
    <v>       0.33373064       0.00109129       0.36207823 </v>
    <v>       0.50463000       0.16850000       0.06120000 </v>
    <v>       0.83272000       0.16670000       0.06193000 </v>
    <v>       0.00004000       0.33467000       0.00213000 </v>
    <v>       0.99918307       0.33459570       0.36184619 </v>
    <v>       0.16757000       0.49895000       0.06268000 </v>
    <v>       0.50099000       0.49896000       0.06206000 </v>
    <v>       0.83393000       0.50234000       0.06235000 </v>
    <v>       0.00121000       0.66785000       0.00188000 </v>
    <v>       0.00063789       0.66646060       0.36216559 </v>
    <v>       0.16792000       0.83462000       0.06228000 </v>
    <v>       0.33437000       0.66664000       0.00225000 </v>
    <v>       0.33448885       0.66646161       0.36349570 </v>
    <v>       0.50152000       0.83563000       0.06217000 </v>
    <v>       0.66753000       0.66705000       0.00175000 </v>
    <v>       0.66692689       0.66551657       0.36127991 </v>
    <v>       0.83293000       0.83584000       0.06235000 </v>
    <v>       0.00121000       0.00098000       0.12225000 </v>
    <v>       0.16700000       0.16811000       0.18239000 </v>
    <v>       0.33470000       0.00227000       0.12192000 </v>
    <v>       0.50174000       0.16716000       0.18263000 </v>
    <v>       0.83421000       0.16639000       0.18283000 </v>
    <v>       0.16964000       0.49868000       0.18209000 </v>
    <v>       0.50219000       0.50081000       0.18317000 </v>
    <v>       0.66741000       0.33395000       0.12233000 </v>
    <v>       0.83134000       0.50253000       0.18283000 </v>
    <v>       0.00132000       0.66795000       0.12253000 </v>
    <v>       0.16898000       0.83509000       0.18243000 </v>
    <v>       0.33446000       0.66703000       0.12223000 </v>
    <v>       0.49971000       0.83538000       0.18278000 </v>
    <v>       0.66698000       0.66840000       0.12259000 </v>
    <v>       0.83488000       0.83403000       0.18294000 </v>
    <v>       0.33558000       0.99863000       0.24353000 </v>
    <v>       0.66801000       0.33262000       0.24229000 </v>
    <v>       0.00448000       0.66739000       0.24217000 </v>
    <v>       0.49986064       0.83297078       0.30354110 </v>
    <v>       0.66521000       0.67351000       0.24327000 </v>
    <v>       0.66620000       0.99680000       0.00000000 </v>
    <v>       0.66580038       0.99467628       0.35986255 </v>
    <v>       0.33213000       0.33386000       0.00135000 </v>
    <v>       0.33123520       0.33445983       0.36153393 </v>
    <v>       0.67040000       0.33673000       0.00321000 </v>
    <v>       0.67059717       0.33712635       0.36285022 </v>
    <v>       0.66728000       0.99998000       0.12246000 </v>
    <v>       0.99806000       0.33495000       0.12235000 </v>
    <v>       0.33675000       0.33238000       0.12261000 </v>
   </varray>
  </structure>
  <varray name="primitive_index" >
   <v type="int" >        1 </v>
   <v type="int" >        2 </v>
   <v type="int" >        3 </v>
   <v type="int" >        4 </v>
   <v type="int" >        5 </v>
   <v type="int" >        6 </v>
   <v type="int" >        7 </v>
   <v type="int" >        8 </v>
   <v type="int" >        9 </v>
   <v type="int" >       10 </v>
   <v type="int" >       11 </v>
   <v type="int" >       12 </v>
   <v type="int" >       13 </v>
   <v type="int" >       14 </v>
   <v type="int" >       15 </v>
   <v type="int" >       16 </v>
   <v type="int" >       17 </v>
   <v type="int" >       18 </v>
   <v type="int" >       19 </v>
   <v type="int" >       20 </v>
   <v type="int" >       21 </v>
   <v type="int" >       22 </v>
   <v type="int" >       23 </v>
   <v type="int" >       24 </v>
   <v type="int" >       25 </v>
   <v type="int" >       26 </v>
   <v type="int" >       27 </v>
   <v type="int" >       28 </v>
   <v type="int" >       29 </v>
   <v type="int" >       30 </v>
   <v type="int" >       31 </v>
   <v type="int" >       32 </v>
   <v type="int" >       33 </v>
   <v type="int" >       34 </v>
   <v type="int" >       35 </v>
   <v type="int" >       36 </v>
   <v type="int" >       37 </v>
   <v type="int" >       38 </v>
   <v type="int" >       39 </v>
   <v type="int" >       40 </v>
   <v type="int" >       41 </v>
   <v type="int" >       42 </v>
   <v type="int" >       43 </v>
   <v type="int" >       44 </v>
   <v type="int" >       45 </v>
   <v type="int" >       46 </v>
   <v type="int" >       47 </v>
   <v type="int" >       48 </v>
   <v type="int" >       49 </v>
   <v type="int" >       50 </v>
   <v type="int" >       51 </v>
   <v type="int" >       52 </v>
   <v type="int" >       53 </v>
   <v type="int" >       54 </v>
   <v type="int" >       55 </v>
   <v type="int" >       56 </v>
   <v type="int" >       57 </v>
   <v type="int" >       58 </v>
   <v type="int" >       59 </v>
   <v type="int" >       60 </v>
   <v type="int" >       61 </v>
   <v type="int" >       62 </v>
   <v type="int" >       63 </v>
  </varray>
 </primitive_cell>
 <kpoints>
  <generation param="Gamma">
   <v type="int" name="divisions">       4        4        1 </v>
   <v name="usershift">      0.00000000       0.00000000       0.00000000 </v>
   <v name="genvec1">      0.25000000       0.00000000       0.00000000 </v>
   <v name="genvec2">      0.00000000       0.25000000       0.00000000 </v>
   <v name="genvec3">      0.00000000       0.00000000       1.00000000 </v>
   <v name="shift">      0.00000000       0.00000000       0.00000000 </v>
  </generation>
  <varray name="kpointlist" >
   <v>       0.00000000       0.00000000       0.00000000 </v>
   <v>       0.25000000       0.00000000       0.00000000 </v>
   <v>       0.50000000       0.00000000       0.00000000 </v>
   <v>       0.00000000       0.25000000       0.00000000 </v>
   <v>       0.25000000       0.25000000       0.00000000 </v>
   <v>       0.50000000       0.25000000       0.00000000 </v>
   <v>      -0.25000000       0.25000000       0.00000000 </v>
   <v>       0.00000000       0.50000000       0.00000000 </v>
   <v>       0.25000000       0.50000000       0.00000000 </v>
   <v>       0.50000000       0.50000000       0.00000000 </v>
  </varray>
  <varray name="weights" >
   <v>       0.06250000 </v>
   <v>       0.12500000 </v>
   <v>       0.06250000 </v>
   <v>       0.12500000 </v>
   <v>       0.12500000 </v>
   <v>       0.12500000 </v>
   <v>       0.12500000 </v>
   <v>       0.06250000 </v>
   <v>       0.12500000 </v>
   <v>       0.06250000 </v>
  </varray>
 </kpoints>
 <parameters>
  <separator name="general" >
   <i type="string" name="SYSTEM">ni3al</i>
   <i type="logical" name="LCOMPAT"> F  </i>
  </separator>
  <separator name="electronic" >
   <i type="string" name="PREC">accura</i>
   <i name="ENMAX">    450.00000000</i>
   <i name="ENAUG">    519.42400000</i>
   <i name="EDIFF">      0.00001000</i>
   <i type="int" name="IALGO">    38</i>
   <i type="int" name="IWAVPR">    11</i>
   <i type="int" name="NBANDS">   368</i>
   <i type="int" name="NBANDSLOW">    -1</i>
   <i type="int" name="NBANDSHIGH">    -1</i>
   <i name="NELECT">    560.00000000</i>
   <i type="int" name="TURBO">     0</i>
   <i type="int" name="IRESTART">     0</i>
   <i type="int" name="NREBOOT">     0</i>
   <i type="int" name="NMIN">     0</i>
   <i name="EREF">      0.00000000</i>
   <separator name="electronic smearing" >
    <i type="int" name="ISMEAR">     1</i>
    <i name="SIGMA">      0.15000000</i>
    <i name="KSPACING">      0.50000000</i>
    <i type="logical" name="KGAMMA"> T  </i>
    <i type="logical" name="KBLOWUP"> T  </i>
   </separator>
   <separator name="electronic projectors" >
    <i type="logical" name="LREAL"> T  </i>
    <v name="ROPT">     -0.00025000     -0.00025000</v>
    <i type="int" name="LMAXPAW">  -100</i>
    <i type="int" name="LMAXMIX">     4</i>
    <i type="logical" name="NLSPLINE"> F  </i>
   </separator>
   <separator name="electronic startup" >
    <i type="int" name="ISTART">     1</i>
    <i type="int" name="ICHARG">     1</i>
    <i type="int" name="INIWAV">     1</i>
   </separator>
   <separator name="electronic spin" >
    <i type="int" name="ISPIN">     2</i>
    <i type="logical" name="LNONCOLLINEAR"> F  </i>
    <v name="MAGMOM">      1.00000000      1.00000000      1.00000000      1.00000000      1.00000000      1.00000000      1.00000000      1.00000000      1.00000000      1.00000000      1.00000000      1.00000000      1.00000000      1.00000000      1.00000000      1.00000000      1.00000000      1.00000000      1.00000000      1.00000000
      1.00000000      1.00000000      1.00000000      1.00000000      1.00000000      1.00000000      1.00000000      1.00000000      1.00000000      1.00000000      1.00000000      1.00000000      1.00000000      1.00000000      1.00000000      1.00000000      1.00000000      1.00000000      1.00000000      1.00000000
      1.00000000      1.00000000      1.00000000      1.00000000      1.00000000      1.00000000      1.00000000      1.00000000      1.00000000      1.00000000      1.00000000      1.00000000      1.00000000      1.00000000      1.00000000      1.00000000      1.00000000      1.00000000      1.00000000      1.00000000
      1.00000000      1.00000000      1.00000000</v>
    <i name="NUPDOWN">     -1.00000000</i>
    <i type="logical" name="LSORBIT"> F  </i>
    <v name="SAXIS">      0.00000000      0.00000000      1.00000000</v>
    <i type="logical" name="LSPIRAL"> F  </i>
    <v name="QSPIRAL">      0.00000000      0.00000000      0.00000000</v>
    <i type="logical" name="LZEROZ"> F  </i>
   </separator>
   <separator name="electronic exchange-correlation" >
    <i type="logical" name="LASPH"> F  </i>
    <i type="logical" name="LMETAGGA"> F  </i>
   </separator>
   <separator name="electronic convergence" >
    <i type="int" name="NELM">   150</i>
    <i type="int" name="NELMDL">     0</i>
    <i type="int" name="NELMIN">     2</i>
    <i name="ENINI">    450.00000000</i>
    <separator name="electronic convergence detail" >
     <i type="logical" name="LDIAG"> T  </i>
     <i type="logical" name="LSUBROT"> F  </i>
     <i name="WEIMIN">      0.00100000</i>
     <i name="EBREAK">      0.00000001</i>
     <i name="DEPER">      0.30000000</i>
     <i type="int" name="NRMM">     4</i>
     <i name="TIME">      0.40000000</i>
    </separator>
   </separator>
   <separator name="electronic mixer" >
    <i name="AMIX">      0.05000000</i>
    <i name="BMIX">      0.00010000</i>
    <i name="AMIN">      0.01000000</i>
    <i name="AMIX_MAG">      0.20000000</i>
    <i name="BMIX_MAG">      0.00010000</i>
    <separator name="electronic mixer details" >
     <i type="int" name="IMIX">     4</i>
     <i type="logical" name="MIXFIRST"> F  </i>
     <i type="int" name="MAXMIX">   -45</i>
     <i name="WC">    100.00000000</i>
     <i type="int" name="INIMIX">     1</i>
     <i type="int" name="MIXPRE">     1</i>
     <i type="int" name="MREMOVE">     5</i>
    </separator>
   </separator>
   <separator name="electronic dipolcorrection" >
    <i type="logical" name="LDIPOL"> T  </i>
    <i type="logical" name="LMONO"> F  </i>
    <i type="int" name="IDIPOL">     3</i>
    <i name="EPSILON">      1.00000000</i>
    <v name="DIPOL">   -100.00000000   -100.00000000   -100.00000000</v>
    <i name="EFIELD">      0.00000000</i>
   </separator>
  </separator>
  <separator name="grids" >
   <i type="int" name="NGX">    60</i>
   <i type="int" name="NGY">    60</i>
   <i type="int" name="NGZ">   168</i>
   <i type="int" name="NGXF">   120</i>
   <i type="int" name="NGYF">   120</i>
   <i type="int" name="NGZF">   336</i>
   <i type="logical" name="ADDGRID"> F  </i>
  </separator>
  <separator name="ionic" >
   <i type="int" name="NSW">   300</i>
   <i type="int" name="IBRION">     2</i>
   <i type="int" name="MDALGO">     0</i>
   <i type="int" name="ISIF">     2</i>
   <i name="PSTRESS">      0.00000000</i>
   <i name="EDIFFG">     -0.02000000</i>
   <i type="int" name="NFREE">     1</i>
   <i name="POTIM">      0.50000000</i>
   <i name="SMASS">     -3.00000000</i>
   <i name="SCALEE">      1.00000000</i>
  </separator>
  <separator name="ionic md" >
   <i name="TEBEG">      0.00010000</i>
   <i name="TEEND">      0.00010000</i>
   <i type="int" name="NBLOCK">     1</i>
   <i type="int" name="KBLOCK">   300</i>
   <i type="int" name="NPACO">   256</i>
   <i name="APACO">     10.00000000</i>
  </separator>
  <separator name="symmetry" >
   <i type="int" name="ISYM">     2</i>
   <i name="SYMPREC">      0.00001000</i>
  </separator>
  <separator name="dos" >
   <i type="int" name="LORBIT">     0</i>
   <v name="RWIGS">     -1.00000000     -1.00000000</v>
   <i type="int" name="NEDOS">   301</i>
   <i name="EMIN">     10.00000000</i>
   <i name="EMAX">    -10.00000000</i>
   <i name="EFERMI">      0.00000000</i>
  </separator>
  <separator name="writing" >
   <i type="int" name="NWRITE">     2</i>
   <i type="logical" name="LWAVE"> F  </i>
   <i type="logical" name="LDOWNSAMPLE"> F  </i>
   <i type="logical" name="LCHARG"> F  </i>
   <i type="logical" name="LPARD"> F  </i>
   <i type="logical" name="LVTOT"> F  </i>
   <i type="logical" name="LVHAR"> F  </i>
   <i type="logical" name="LELF"> F  </i>
   <i type="logical" name="LOPTICS"> F  </i>
   <v name="STM">      0.00000000      0.00000000      0.00000000      0.00000000      0.00000000      0.00000000      0.00000000</v>
  </separator>
  <separator name="performance" >
   <i type="int" name="NPAR">     1</i>
   <i type="int" name="NSIM">     4</i>
   <i type="int" name="NBLK">    -1</i>
   <i type="logical" name="LPLANE"> T  </i>
   <i type="logical" name="LSCALAPACK"> T  </i>
   <i type="logical" name="LSCAAWARE"> F  </i>
   <i type="logical" name="LSCALU"> F  </i>
   <i type="logical" name="LASYNC"> F  </i>
   <i type="logical" name="LORBITALREAL"> F  </i>
  </separator>
  <separator name="miscellaneous" >
   <i type="int" name="IDIOT">     3</i>
   <i type="int" name="PHON_NSTRUCT">    -1</i>
   <i type="logical" name="LMUSIC"> F  </i>
   <v name="POMASS">     55.84700000     51.99600000</v>
   <v name="DARWINR">      0.00000000      0.00000000</v>
   <v name="DARWINV">      1.00000000      1.00000000</v>
   <i type="logical" name="LCORR"> T  </i>
  </separator>
  <i type="logical" name="GGA_COMPAT"> T  </i>
  <i type="logical" name="LBERRY"> F  </i>
  <i type="int" name="ICORELEVEL">     0</i>
  <i type="logical" name="LDAU"> F  </i>
  <i type="int" name="I_CONSTRAINED_M">     0</i>
  <separator name="electronic exchange-correlation" >
   <i type="string" name="GGA">--</i>
   <i type="int" name="VOSKOWN">     0</i>
   <i type="logical" name="LHFCALC"> F  </i>
   <i type="string" name="PRECFOCK"></i>
   <i type="logical" name="LSYMGRAD"> F  </i>
   <i type="logical" name="LHFONE"> F  </i>
   <i type="logical" name="LRHFCALC"> F  </i>
   <i type="logical" name="LTHOMAS"> F  </i>
   <i type="logical" name="LMODELHF"> F  </i>
   <i type="logical" name="LFOCKACE"> F  </i>
   <i name="ENCUT4O">     -1.00000000</i>
   <i type="int" name="EXXOEP">     0</i>
   <i type="int" name="FOURORBIT">     0</i>
   <i name="AEXX">      0.00000000</i>
   <i name="HFALPHA">      0.00000000</i>
   <i name="MCALPHA">      0.00000000</i>
   <i name="ALDAX">      1.00000000</i>
   <i name="AGGAX">      1.00000000</i>
   <i name="ALDAC">      1.00000000</i>
   <i name="AGGAC">      1.00000000</i>
   <i type="int" name="NKREDX">     1</i>
   <i type="int" name="NKREDY">     1</i>
   <i type="int" name="NKREDZ">     1</i>
   <i type="logical" name="SHIFTRED"> F  </i>
   <i type="logical" name="ODDONLY"> F  </i>
   <i type="logical" name="EVENONLY"> F  </i>
   <i type="int" name="LMAXFOCK">     0</i>
   <i type="int" name="NMAXFOCKAE">     0</i>
   <i type="logical" name="LFOCKAEDFT"> F  </i>
   <i name="HFSCREEN">      0.00000000</i>
   <i name="HFSCREENC">      0.00000000</i>
   <i type="int" name="NBANDSGWLOW">     0</i>
  </separator>
  <separator name="vdW DFT" >
   <i type="logical" name="LUSE_VDW"> F  </i>
   <i name="Zab_VDW">     -0.84910000</i>
   <i name="PARAM1">      0.12340000</i>
   <i name="PARAM2">      1.00000000</i>
   <i name="PARAM3">      0.00000000</i>
  </separator>
  <separator name="model GW" >
   <i type="int" name="MODEL_GW">     0</i>
   <i name="MODEL_EPS0">     16.29231243</i>
   <i name="MODEL_ALPHA">      1.00000000</i>
  </separator>
  <separator name="linear response parameters" >
   <i type="logical" name="LEPSILON"> F  </i>
   <i type="logical" name="LRPA"> F  </i>
   <i type="logical" name="LNABLA"> F  </i>
   <i type="logical" name="LVEL"> F  </i>
   <i name="CSHIFT">      0.10000000</i>
   <i name="OMEGAMAX">     -1.00000000</i>
   <i name="DEG_THRESHOLD">      0.00200000</i>
   <i name="RTIME">     -0.10000000</i>
   <i name="WPLASMAI">      0.00000000</i>
   <v name="DFIELD">      0.00000000      0.00000000      0.00000000</v>
   <v name="WPLASMA">      0.00000000      0.00000000      0.00000000      0.00000000      0.00000000      0.00000000      0.00000000      0.00000000      0.00000000</v>
  </separator>
  <separator name="orbital magnetization" >
   <i type="logical" name="NUCIND"> F  </i>
   <v name="MAGPOS">      0.00000000      0.00000000      0.00000000</v>
   <i type="logical" name="LNICSALL"> T  </i>
   <i type="logical" name="ORBITALMAG"> F  </i>
   <i type="logical" name="LMAGBLOCH"> F  </i>
   <i type="logical" name="LCHIMAG"> F  </i>
   <i type="logical" name="LGAUGE"> T  </i>
   <i type="int" name="MAGATOM">     0</i>
   <v name="MAGDIPOL">      0.00000000      0.00000000      0.00000000</v>
   <v name="AVECCONST">      0.00000000      0.00000000      0.00000000</v>
  </separator>
  <separator name="response functions" >
   <i type="logical" name="LFINITE_TEMPERATURE"> F  </i>
   <i type="logical" name="LADDER"> F  </i>
   <i type="logical" name="LRPAFORCE"> F  </i>
   <i type="logical" name="LFXC"> F  </i>
   <i type="logical" name="LHARTREE"> T  </i>
   <i type="int" name="IBSE">     0</i>
   <v type="int" name="KPOINT">    -1     0     0     0</v>
   <i type="logical" name="LTCTC"> F  </i>
   <i type="logical" name="LTCTE"> F  </i>
   <i type="logical" name="LTETE"> F  </i>
   <i type="logical" name="LTRIPLET"> F  </i>
   <i type="logical" name="LFXCEPS"> F  </i>
   <i type="logical" name="LFXHEG"> F  </i>
   <i type="int" name="NATURALO">     2</i>
   <i type="logical" name="LHOLEGF"> F  </i>
   <i type="logical" name="L2ORDER"> F  </i>
   <i type="logical" name="LDMP1"> F  </i>
   <i type="logical" name="LMP2LT"> F  </i>
   <i type="logical" name="LSMP2LT"> F  </i>
   <i type="logical" name="LGWLF"> F  </i>
   <i name="ENCUTGW">     -2.00000000</i>
   <i name="ENCUTGWSOFT">     -2.00000000</i>
   <i name="ENCUTLF">     -1.00000000</i>
   <i type="logical" name="LESF_SPLINES"> F  </i>
   <i type="int" name="LMAXMP2">    -1</i>
   <i name="SCISSOR">      0.00000000</i>
   <i type="int" name="NOMEGA">     0</i>
   <i type="int" name="NOMEGAR">     0</i>
   <i type="int" name="NBANDSGW">    -1</i>
   <i type="int" name="NBANDSO">    -1</i>
   <i type="int" name="NBANDSV">    -1</i>
   <i type="int" name="NELMGW">     1</i>
   <i type="int" name="NELMHF">     1</i>
   <i type="int" name="DIM">     3</i>
   <i type="int" name="IESPILON">     4</i>
   <i type="int" name="ANTIRES">     0</i>
   <i name="OMEGAMAX">    -30.00000000</i>
   <i name="OMEGAMIN">    -30.00000000</i>
   <i name="OMEGATL">   -200.00000000</i>
   <i type="int" name="OMEGAGRID">     0</i>
   <i name="CSHIFT">     -0.10000000</i>
   <i type="logical" name="LSELFENERGY"> F  </i>
   <i type="logical" name="LSPECTRAL"> F  </i>
   <i type="logical" name="LSPECTRALGW"> F  </i>
   <i type="logical" name="LSINGLES"> F  </i>
   <i type="logical" name="LFERMIGW"> F  </i>
   <i type="logical" name="ODDONLYGW"> F  </i>
   <i type="logical" name="EVENONLYGW"> F  </i>
   <i type="int" name="NKREDLFX">     1</i>
   <i type="int" name="NKREDLFY">     1</i>
   <i type="int" name="NKREDLFZ">     1</i>
   <i type="int" name="MAXMEM">  2800</i>
   <i type="int" name="TELESCOPE">     0</i>
   <i type="int" name="NTAUPAR">    -1</i>
   <i type="int" name="NOMEGAPAR">    -1</i>
   <i name="DAMP_NEWTON">      0.80000001</i>
   <i name="LAMBDA">      1.00000000</i>
  </separator>
  <separator name="External order field" >
   <i name="OFIELD_KAPPA">      0.00000000</i>
   <v name="OFIELD_K">      0.00000000      0.00000000      0.00000000</v>
   <i name="OFIELD_Q6_NEAR">      0.00000000</i>
   <i name="OFIELD_Q6_FAR">      0.00000000</i>
   <i name="OFIELD_A">      0.00000000</i>
  </separator>
  <separator name="optional k-points parameters" >
   <i type="int" name="KPOINTS_OPT_MODE">     1</i>
   <i type="logical" name="LKPOINTS_OPT"> F  </i>
  </separator>
  <separator name="solvation model" >
   <i type="logical" name="LSOL"> F  </i>
  </separator>
 </parameters>
 <atominfo>
  <atoms>      63 </atoms>
  <types>       2 </types>
  <array name="atoms" >
   <dimension dim="1">ion</dimension>
   <field type="string">element</field>
   <field type="int">atomtype</field>
   <set>
    <rc><c>Fe</c><c>   1</c></rc>
    <rc><c>Fe</c><c>   1</c></rc>
    <rc><c>Fe</c><c>   1</c></rc>
    <rc><c>Fe</c><c>   1</c></rc>
    <rc><c>Fe</c><c>   1</c></rc>
    <rc><c>Fe</c><c>   1</c></rc>
    <rc><c>Fe</c><c>   1</c></rc>
    <rc><c>Fe</c><c>   1</c></rc>
    <rc><c>Fe</c><c>   1</c></rc>
    <rc><c>Fe</c><c>   1</c></rc>
    <rc><c>Fe</c><c>   1</c></rc>
    <rc><c>Fe</c><c>   1</c></rc>
    <rc><c>Fe</c><c>   1</c></rc>
    <rc><c>Fe</c><c>   1</c></rc>
    <rc><c>Fe</c><c>   1</c></rc>
    <rc><c>Fe</c><c>   1</c></rc>
    <rc><c>Fe</c><c>   1</c></rc>
    <rc><c>Fe</c><c>   1</c></rc>
    <rc><c>Fe</c><c>   1</c></rc>
    <rc><c>Fe</c><c>   1</c></rc>
    <rc><c>Fe</c><c>   1</c></rc>
    <rc><c>Fe</c><c>   1</c></rc>
    <rc><c>Fe</c><c>   1</c></rc>
    <rc><c>Fe</c><c>   1</c></rc>
    <rc><c>Fe</c><c>   1</c></rc>
    <rc><c>Fe</c><c>   1</c></rc>
    <rc><c>Fe</c><c>   1</c></rc>
    <rc><c>Fe</c><c>   1</c></rc>
    <rc><c>Fe</c><c>   1</c></rc>
    <rc><c>Fe</c><c>   1</c></rc>
    <rc><c>Fe</c><c>   1</c></rc>
    <rc><c>Fe</c><c>   1</c></rc>
    <rc><c>Fe</c><c>   1</c></rc>
    <rc><c>Fe</c><c>   1</c></rc>
    <rc><c>Fe</c><c>   1</c></rc>
    <rc><c>Fe</c><c>   1</c></rc>
    <rc><c>Fe</c><c>   1</c></rc>
    <rc><c>Fe</c><c>   1</c></rc>
    <rc><c>Fe</c><c>   1</c></rc>
    <rc><c>Fe</c><c>   1</c></rc>
    <rc><c>Fe</c><c>   1</c></rc>
    <rc><c>Fe</c><c>   1</c></rc>
    <rc><c>Fe</c><c>   1</c></rc>
    <rc><c>Fe</c><c>   1</c></rc>
    <rc><c>Fe</c><c>   1</c></rc>
    <rc><c>Fe</c><c>   1</c></rc>
    <rc><c>Fe</c><c>   1</c></rc>
    <rc><c>Fe</c><c>   1</c></rc>
    <rc><c>Fe</c><c>   1</c></rc>
    <rc><c>Cr</c><c>   2</c></rc>
    <rc><c>Cr</c><c>   2</c></rc>
    <rc><c>Cr</c><c>   2</c></rc>
    <rc><c>Cr</c><c>   2</c></rc>
    <rc><c>Cr</c><c>   2</c></rc>
    <rc><c>Cr</c><c>   2</c></rc>
    <rc><c>Cr</c><c>   2</c></rc>
    <rc><c>Cr</c><c>   2</c></rc>
    <rc><c>Cr</c><c>   2</c></rc>
    <rc><c>Cr</c><c>   2</c></rc>
    <rc><c>Cr</c><c>   2</c></rc>
    <rc><c>Cr</c><c>   2</c></rc>
    <rc><c>Cr</c><c>   2</c></rc>
    <rc><c>Cr</c><c>   2</c></rc>
   </set>
  </array>
  <array name="atomtypes" >
   <dimension dim="1">type</dimension>
   <field type="int">atomspertype</field>
   <field type="string">element</field>
   <field>mass</field>
   <field>valence</field>
   <field type="string">pseudopotential</field>
   <set>
    <rc><c>  49</c><c>Fe</c><c>     55.84700000</c><c>      8.00000000</c><c>  PAW_PBE Fe 06Sep2000                  </c></rc>
    <rc><c>  14</c><c>Cr</c><c>     51.99600000</c><c>     12.00000000</c><c>  PAW_PBE Cr_pv 02Aug2007               </c></rc>
   </set>
  </array>
 </atominfo>
 <structure name="initialpos" >
  <crystal>
   <varray name="basis" >
    <v>       8.53269958       0.00000000       0.00000000 </v>
    <v>      -0.00051933       8.49699972       0.00000000 </v>
    <v>       0.00000000       0.00000000      23.59499931 </v>
   </varray>
   <i name="volume">   1710.69280467 </i>
   <varray name="rec_basis" >
    <v>       0.11719620       0.00000716       0.00000000 </v>
    <v>       0.00000000       0.11768860       0.00000000 </v>
    <v>       0.00000000       0.00000000       0.04238186 </v>
   </varray>
  </crystal>
  <varray name="positions" >
   <v>       0.00086000       0.99993000       0.24271000 </v>
   <v>       0.16645303       0.16679269       0.30354591 </v>
   <v>       0.50234708       0.16778972       0.30364080 </v>
   <v>       0.66822000       0.00107000       0.24272000 </v>
   <v>       0.83315016       0.16811597       0.30355775 </v>
   <v>       0.00044000       0.33497000       0.24240000 </v>
   <v>       0.16748000       0.50058605       0.30394903 </v>
   <v>       0.33469000       0.33305000       0.24267000 </v>
   <v>       0.50136879       0.49952602       0.30346556 </v>
   <v>       0.83313861       0.50196246       0.30308510 </v>
   <v>       0.16821137       0.83313439       0.30394853 </v>
   <v>       0.33342000       0.66555000       0.24261000 </v>
   <v>       0.83472974       0.83254651       0.30306878 </v>
   <v>       0.00064000       0.00119000       0.00199000 </v>
   <v>       0.00006150       0.99986505       0.36307309 </v>
   <v>       0.16843000       0.16962000       0.06269000 </v>
   <v>       0.33460000       0.00297000       0.00254000 </v>
   <v>       0.33373064       0.00109129       0.36207823 </v>
   <v>       0.50463000       0.16850000       0.06120000 </v>
   <v>       0.83272000       0.16670000       0.06193000 </v>
   <v>       0.00004000       0.33467000       0.00213000 </v>
   <v>       0.99918307       0.33459570       0.36184619 </v>
   <v>       0.16757000       0.49895000       0.06268000 </v>
   <v>       0.50099000       0.49896000       0.06206000 </v>
   <v>       0.83393000       0.50234000       0.06235000 </v>
   <v>       0.00121000       0.66785000       0.00188000 </v>
   <v>       0.00063789       0.66646060       0.36216559 </v>
   <v>       0.16792000       0.83462000       0.06228000 </v>
   <v>       0.33437000       0.66664000       0.00225000 </v>
   <v>       0.33448885       0.66646161       0.36349570 </v>
   <v>       0.50152000       0.83563000       0.06217000 </v>
   <v>       0.66753000       0.66705000       0.00175000 </v>
   <v>       0.66692689       0.66551657       0.36127991 </v>
   <v>       0.83293000       0.83584000       0.06235000 </v>
   <v>       0.00121000       0.00098000       0.12225000 </v>
   <v>       0.16700000       0.16811000       0.18239000 </v>
   <v>       0.33470000       0.00227000       0.12192000 </v>
   <v>       0.50174000       0.16716000       0.18263000 </v>
   <v>       0.83421000       0.16639000       0.18283000 </v>
   <v>       0.16964000       0.49868000       0.18209000 </v>
   <v>       0.50219000       0.50081000       0.18317000 </v>
   <v>       0.66741000       0.33395000       0.12233000 </v>
   <v>       0.83134000       0.50253000       0.18283000 </v>
   <v>       0.00132000       0.66795000       0.12253000 </v>
   <v>       0.16898000       0.83509000       0.18243000 </v>
   <v>       0.33446000       0.66703000       0.12223000 </v>
   <v>       0.49971000       0.83538000       0.18278000 </v>
   <v>       0.66698000       0.66840000       0.12259000 </v>
   <v>       0.83488000       0.83403000       0.18294000 </v>
   <v>       0.33558000       0.99863000       0.24353000 </v>
   <v>       0.66801000       0.33262000       0.24229000 </v>
   <v>       0.00448000       0.66739000       0.24217000 </v>
   <v>       0.49986064       0.83297078       0.30354110 </v>
   <v>       0.66521000       0.67351000       0.24327000 </v>
   <v>       0.66620000       0.99680000       0.00000000 </v>
   <v>       0.66580038       0.99467628       0.35986255 </v>
   <v>       0.33213000       0.33386000       0.00135000 </v>
   <v>       0.33123520       0.33445983       0.36153393 </v>
   <v>       0.67040000       0.33673000       0.00321000 </v>
   <v>       0.67059717       0.33712635       0.36285022 </v>
   <v>       0.66728000       0.99998000       0.12246000 </v>
   <v>       0.99806000       0.33495000       0.12235000 </v>
   <v>       0.33675000       0.33238000       0.12261000 </v>
  </varray>
  <varray name="selective"  type="logical" >
   <v type="logical" >  F  F  F </v>
   <v type="logical" >  T  T  T </v>
   <v type="logical" >  T  T  T </v>
   <v type="logical" >  F  F  F </v>
   <v type="logical" >  T  T  T </v>
   <v type="logical" >  F  F  F </v>
   <v type="logical" >  T  T  T </v>
   <v type="logical" >  F  F  F </v>
   <v type="logical" >  T  T  T </v>
   <v type="logical" >  T  T  T </v>
   <v type="logical" >  T  T  T </v>
   <v type="logical" >  F  F  F </v>
   <v type="logical" >  T  T  T </v>
   <v type="logical" >  F  F  F </v>
   <v type="logical" >  T  T  T </v>
   <v type="logical" >  F  F  F </v>
   <v type="logical" >  F  F  F </v>
   <v type="logical" >  T  T  T </v>
   <v type="logical" >  F  F  F </v>
   <v type="logical" >  F  F  F </v>
   <v type="logical" >  F  F  F </v>
   <v type="logical" >  T  T  T </v>
   <v type="logical" >  F  F  F </v>
   <v type="logical" >  F  F  F </v>
   <v type="logical" >  F  F  F </v>
   <v type="logical" >  F  F  F </v>
   <v type="logical" >  T  T  T </v>
   <v type="logical" >  F  F  F </v>
   <v type="logical" >  F  F  F </v>
   <v type="logical" >  T  T  T </v>
   <v type="logical" >  F  F  F </v>
   <v type="logical" >  F  F  F </v>
   <v type="logical" >  T  T  T </v>
   <v type="logical" >  F  F  F </v>
   <v type="logical" >  F  F  F </v>
   <v type="logical" >  F  F  F </v>
   <v type="logical" >  F  F  F </v>
   <v type="logical" >  F  F  F </v>
   <v type="logical" >  F  F  F </v>
   <v type="logical" >  F  F  F </v>
   <v type="logical" >  F  F  F </v>
   <v type="logical" >  F  F  F </v>
   <v type="logical" >  F  F  F </v>
   <v type="logical" >  F  F  F </v>
   <v type="logical" >  F  F  F </v>
   <v type="logical" >  F  F  F </v>
   <v type="logical" >  F  F  F </v>
   <v type="logical" >  F  F  F </v>
   <v type="logical" >  F  F  F </v>
   <v type="logical" >  F  F  F </v>
   <v type="logical" >  F  F  F </v>
   <v type="logical" >  F  F  F </v>
   <v type="logical" >  T  T  T </v>
   <v type="logical" >  F  F  F </v>
   <v type="logical" >  F  F  F </v>
   <v type="logical" >  T  T  T </v>
   <v type="logical" >  F  F  F </v>
   <v type="logical" >  T  T  T </v>
   <v type="logical" >  F  F  F </v>
   <v type="logical" >  T  T  T </v>
   <v type="logical" >  F  F  F </v>
   <v type="logical" >  F  F  F </v>
   <v type="logical" >  F  F  F </v>
  </varray>
  <nose>
   <v>      -3.00000000       0.00000000       0.00010000       0.00010000 </v>
  </nose>
 </structure>
 <calculation>
  <scstep>
   <time name="dav">   57.10   13.93</time>
   <time name="total">   83.59   20.82</time>
   <dipole>
    <v name="dipole">      0.00000000       0.00000000       0.06316384 </v>
    <i name="Tr[quadrupol]">  -7025.55378293 </i>
    <i name="Echarged">      0.00000000 </i>
    <i name="Edipol_quadrupol">      0.00000000 </i>
    <i name="Eion">      0.00000000 </i>
   </dipole>
   <energy>
    <i name="alphaZ">   1784.78932345 </i>
    <i name="ewald"> 213121.87357136 </i>
    <i name="hartreedc">-263152.81180181 </i>
    <i name="XCdc">    966.35522785 </i>
    <i name="pawpsdc">  54521.53030852 </i>
    <i name="pawaedc"> -55668.26899686 </i>
    <i name="eentropy">      0.01588348 </i>
    <i name="bandstr">  -4274.91861248 </i>
    <i name="atom">  52191.97164881 </i>
    <i name="e_fr_energy">   -509.46344768 </i>
    <i name="e_wo_entrp">   -509.47933116 </i>
    <i name="e_0_energy">   -509.46874217 </i>
   </energy>
  </scstep>
  <scstep>
   <time name="dav">   59.49   14.00</time>
   <time name="total">   84.88   20.44</time>
   <dipole>
    <v name="dipole">      0.00000000       0.00000000       0.06481468 </v>
    <i name="Tr[quadrupol]">  -7025.54730753 </i>
    <i name="Echarged">      0.00000000 </i>
    <i name="Edipol_quadrupol">      0.00000000 </i>
    <i name="Eion">      0.00000000 </i>
   </dipole>
   <energy>
    <i name="e_fr_energy">   -509.46350657 </i>
    <i name="e_wo_entrp">   -509.47944735 </i>
    <i name="e_0_energy">   -509.46882016 </i>
   </energy>
  </scstep>
  <scstep>
   <time name="dav">   50.31   13.18</time>
   <time name="total">   75.81   19.59</time>
   <dipole>
    <v name="dipole">      0.00000000       0.00000000       0.06270904 </v>
    <i name="Tr[quadrupol]">  -7025.54797246 </i>
    <i name="Echarged">      0.00000000 </i>
    <i name="Edipol_quadrupol">      0.00000000 </i>
    <i name="Eion">      0.00000000 </i>
   </dipole>
   <energy>
    <i name="e_fr_energy">   -509.46346575 </i>
    <i name="e_wo_entrp">   -509.47929691 </i>
    <i name="e_0_energy">   -509.46874281 </i>
   </energy>
  </scstep>
  <scstep>
   <time name="dav">   57.31   13.73</time>
   <time name="total">   82.13   20.18</time>
   <dipole>
    <v name="dipole">      0.00000000       0.00000000       0.06323504 </v>
    <i name="Tr[quadrupol]">  -7025.55117636 </i>
    <i name="Echarged">      0.00000000 </i>
    <i name="Edipol_quadrupol">      0.00000000 </i>
    <i name="Eion">      0.00000000 </i>
   </dipole>
   <energy>
    <i name="e_fr_energy">   -509.46344846 </i>
    <i name="e_wo_entrp">   -509.47931847 </i>
    <i name="e_0_energy">   -509.46873846 </i>
   </energy>
  </scstep>
  <scstep>
   <time name="dav">   41.42   11.90</time>
   <time name="total">   62.74   17.44</time>
   <dipole>
    <v name="dipole">      0.00000000       0.00000000       0.06348444 </v>
    <i name="Tr[quadrupol]">  -7025.54929023 </i>
    <i name="Echarged">      0.00000000 </i>
    <i name="Edipol_quadrupol">      0.00000000 </i>
    <i name="Eion">      0.00000000 </i>
   </dipole>
   <energy>
    <i name="alphaZ">   1784.78833738 </i>
    <i name="ewald"> 213121.87357136 </i>
    <i name="hartreedc">-263152.65076109 </i>
    <i name="XCdc">    966.35153895 </i>
    <i name="pawpsdc">  54521.52663008 </i>
    <i name="pawaedc"> -55668.26151918 </i>
    <i name="eentropy">      0.01587005 </i>
    <i name="bandstr">  -4275.07876622 </i>
    <i name="atom">  52191.97164881 </i>
    <i name="e_fr_energy">   -509.46344986 </i>
    <i name="e_wo_entrp">   -509.47931991 </i>
    <i name="e_0_energy">   -509.46873988 </i>
   </energy>
  </scstep>
  <structure>
   <crystal>
    <varray name="basis" >
     <v>       8.53269958       0.00000000       0.00000000 </v>
     <v>      -0.00051933       8.49699972       0.00000000 </v>
     <v>       0.00000000       0.00000000      23.59499931 </v>
    </varray>
    <i name="volume">   1710.69280467 </i>
    <varray name="rec_basis" >
     <v>       0.11719620       0.00000716       0.00000000 </v>
     <v>       0.00000000       0.11768860       0.00000000 </v>
     <v>       0.00000000       0.00000000       0.04238186 </v>
    </varray>
   </crystal>
   <varray name="positions" >
    <v>       0.00086000       0.99993000       0.24271000 </v>
    <v>       0.16645303       0.16679269       0.30354591 </v>
    <v>       0.50234708       0.16778972       0.30364080 </v>
    <v>       0.66822000       0.00107000       0.24272000 </v>
    <v>       0.83315016       0.16811597       0.30355775 </v>
    <v>       0.00044000       0.33497000       0.24240000 </v>
    <v>       0.16748000       0.50058605       0.30394903 </v>
    <v>       0.33469000       0.33305000       0.24267000 </v>
    <v>       0.50136879       0.49952602       0.30346556 </v>
    <v>       0.83313861       0.50196246       0.30308510 </v>
    <v>       0.16821137       0.83313439       0.30394853 </v>
    <v>       0.33342000       0.66555000       0.24261000 </v>
    <v>       0.83472974       0.83254651       0.30306878 </v>
    <v>       0.00064000       0.00119000       0.00199000 </v>
    <v>       0.00006150       0.99986505       0.36307309 </v>
    <v>       0.16843000       0.16962000       0.06269000 </v>
    <v>       0.33460000       0.00297000       0.00254000 </v>
    <v>       0.33373064       0.00109129       0.36207823 </v>
    <v>       0.50463000       0.16850000       0.06120000 </v>
    <v>       0.83272000       0.16670000       0.06193000 </v>
    <v>       0.00004000       0.33467000       0.00213000 </v>
    <v>       0.99918307       0.33459570       0.36184619 </v>
    <v>       0.16757000       0.49895000       0.06268000 </v>
    <v>       0.50099000       0.49896000       0.06206000 </v>
    <v>       0.83393000       0.50234000       0.06235000 </v>
    <v>       0.00121000       0.66785000       0.00188000 </v>
    <v>       0.00063789       0.66646060       0.36216559 </v>
    <v>       0.16792000       0.83462000       0.06228000 </v>
    <v>       0.33437000       0.66664000       0.00225000 </v>
    <v>       0.33448885       0.66646161       0.36349570 </v>
    <v>       0.50152000       0.83563000       0.06217000 </v>
    <v>       0.66753000       0.66705000       0.00175000 </v>
    <v>       0.66692689       0.66551657       0.36127991 </v>
    <v>       0.83293000       0.83584000       0.06235000 </v>
    <v>       0.00121000       0.00098000       0.12225000 </v>
    <v>       0.16700000       0.16811000       0.18239000 </v>
    <v>       0.33470000       0.00227000       0.12192000 </v>
    <v>       0.50174000       0.16716000       0.18263000 </v>
    <v>       0.83421000       0.16639000       0.18283000 </v>
    <v>       0.16964000       0.49868000       0.18209000 </v>
    <v>       0.50219000       0.50081000       0.18317000 </v>
    <v>       0.66741000       0.33395000       0.12233000 </v>
    <v>       0.83134000       0.50253000       0.18283000 </v>
    <v>       0.00132000       0.66795000       0.12253000 </v>
    <v>       0.16898000       0.83509000       0.18243000 </v>
    <v>       0.33446000       0.66703000       0.12223000 </v>
    <v>       0.49971000       0.83538000       0.18278000 </v>
    <v>       0.66698000       0.66840000       0.12259000 </v>
    <v>       0.83488000       0.83403000       0.18294000 </v>
    <v>       0.33558000       0.99863000       0.24353000 </v>
    <v>       0.66801000       0.33262000       0.24229000 </v>
    <v>       0.00448000       0.66739000       0.24217000 </v>
    <v>       0.49986064       0.83297078       0.30354110 </v>
    <v>       0.66521000       0.67351000       0.24327000 </v>
    <v>       0.66620000       0.99680000       0.00000000 </v>
    <v>       0.66580038       0.99467628       0.35986255 </v>
    <v>       0.33213000       0.33386000       0.00135000 </v>
    <v>       0.33123520       0.33445983       0.36153393 </v>
    <v>       0.67040000       0.33673000       0.00321000 </v>
    <v>       0.67059717       0.33712635       0.36285022 </v>
    <v>       0.66728000       0.99998000       0.12246000 </v>
    <v>       0.99806000       0.33495000       0.12235000 </v>
    <v>       0.33675000       0.33238000       0.12261000 </v>
   </varray>
  </structure>
  <varray name="forces" >
   <v>       0.04471218      -0.02970477      -0.12440088 </v>
   <v>      -0.20399427      -0.19733328       0.10732140 </v>
   <v>      -0.06263834      -0.08765589       0.17617110 </v>
   <v>       0.02436505       0.00674832      -0.17431603 </v>
   <v>       0.42141895      -0.05435567       0.15040900 </v>
   <v>       0.00555183       0.01217784      -0.10890587 </v>
   <v>      -0.15846400       0.17387922       0.11177268 </v>
   <v>       0.00637850       0.00437092      -0.17971787 </v>
   <v>      -0.10003561       0.20601092       0.08491866 </v>
   <v>       0.25881651       0.20702950      -0.03435972 </v>
   <v>      -0.03492852       0.05453004       0.18921887 </v>
   <v>      -0.06153820       0.01102325      -0.13583117 </v>
   <v>       0.23961306      -0.05875613       0.22548961 </v>
   <v>       0.01863141      -0.03846057       0.26082984 </v>
   <v>      -0.12598013       0.13684969      -0.36857292 </v>
   <v>      -0.32274575      -0.27632916       0.00570582 </v>
   <v>      -0.03246281      -0.01729138       0.38927974 </v>
   <v>       0.08490288       0.20572568      -0.10487070 </v>
   <v>      -0.20877541      -0.15613104       0.57316021 </v>
   <v>       0.43164722       0.15233657       0.20697876 </v>
   <v>      -0.08004668       0.01832131       0.39834324 </v>
   <v>      -0.04774845      -0.11278206      -0.29055104 </v>
   <v>      -0.25739047       0.30711095      -0.00716125 </v>
   <v>       0.11344609       0.48429978       0.20819181 </v>
   <v>       0.14890759       0.12452725      -0.09329243 </v>
   <v>       0.04013288       0.00706418       0.12950029 </v>
   <v>      -0.07114095      -0.02913247      -0.29233718 </v>
   <v>      -0.02058105       0.00353007      -0.36195425 </v>
   <v>      -0.09949671       0.00955436       0.25840493 </v>
   <v>       0.12261443      -0.11527413      -0.27650546 </v>
   <v>      -0.28822983      -0.35890944       0.02160533 </v>
   <v>       0.00280378      -0.07245658       0.41505418 </v>
   <v>      -0.04173615      -0.07801360      -0.06641611 </v>
   <v>       0.35701089      -0.35423756       0.00604108 </v>
   <v>       0.02090276       0.13234801      -0.02506561 </v>
   <v>       0.00312081      -0.01771415       0.07416339 </v>
   <v>       0.06209060       0.04997737       0.04001739 </v>
   <v>      -0.03337246      -0.01501131       0.15042119 </v>
   <v>       0.00654528       0.00976830       0.16922209 </v>
   <v>      -0.03820223       0.00987878       0.19116432 </v>
   <v>       0.04401947       0.03376871       0.18438395 </v>
   <v>       0.04869323       0.00209851       0.00643719 </v>
   <v>       0.02691813       0.05712235       0.16086219 </v>
   <v>      -0.04727083      -0.06744917      -0.07220553 </v>
   <v>       0.01914999       0.03465794       0.08848361 </v>
   <v>       0.11967027       0.00263698      -0.04386241 </v>
   <v>      -0.01210717      -0.01817090       0.07535808 </v>
   <v>      -0.06376557      -0.07772977       0.03844093 </v>
   <v>       0.01542609      -0.05425580       0.17255945 </v>
   <v>       0.06123590      -0.11474238      -0.02177815 </v>
   <v>      -0.02306372      -0.04103658      -0.26513408 </v>
   <v>       0.04979907      -0.02762920      -0.23353328 </v>
   <v>      -0.28429156      -0.12942702      -0.33220488 </v>
   <v>      -0.12808449       0.15102653      -0.08335486 </v>
   <v>       0.06614074       0.42829725      -0.78869164 </v>
   <v>       0.05027643      -0.20362248       0.30203732 </v>
   <v>       0.33080359       0.00300925      -0.65528453 </v>
   <v>      -0.28657494      -0.07326955       0.31300653 </v>
   <v>      -0.29756185      -0.35035122      -0.23643175 </v>
   <v>       0.21572163       0.15519141       0.39530949 </v>
   <v>      -0.07598185       0.16234221      -0.34740165 </v>
   <v>      -0.04346740      -0.04105566      -0.08434459 </v>
   <v>       0.09021022      -0.08892453      -0.47177783 </v>
  </varray>
  <varray name="stress" >
   <v>     -18.88986860       0.37550615      -0.02858419 </v>
   <v>       0.37550637     -19.40211291      -0.03024551 </v>
   <v>      -0.02858378      -0.03024474      -4.21561287 </v>
  </varray>
  <energy>
   <i name="e_fr_energy">   -509.46344986 </i>
   <i name="e_wo_entrp">   -509.47931991 </i>
   <i name="e_0_energy">   -509.46873988 </i>
  </energy>
  <time name="totalsc">  505.55  132.25</time>
 </calculation>
 <calculation>
  <scstep>
   <time name="dav">  128.64   18.84</time>
   <time name="total">  154.30   25.33</time>
   <dipole>
    <v name="dipole">      0.00000000       0.00000000       0.06368859 </v>
    <i name="Tr[quadrupol]">  -7021.00082014 </i>
    <i name="Echarged">      0.00000000 </i>
    <i name="Edipol_quadrupol">      0.00000000 </i>
    <i name="Eion">      0.00000000 </i>
   </dipole>
   <energy>
    <i name="alphaZ">   1785.05100106 </i>
    <i name="ewald"> 213052.75157614 </i>
    <i name="hartreedc">-263083.89408681 </i>
    <i name="XCdc">    966.36741975 </i>
    <i name="pawpsdc">  54521.51579394 </i>
    <i name="pawaedc"> -55668.24840657 </i>
    <i name="eentropy">      0.01668176 </i>
    <i name="bandstr">  -4274.69742384 </i>
    <i name="atom">  52191.97164881 </i>
    <i name="e_fr_energy">   -509.16579576 </i>
    <i name="e_wo_entrp">   -509.18247752 </i>
    <i name="e_0_energy">   -509.17135635 </i>
   </energy>
  </scstep>
  <scstep>
   <time name="dav">  121.89   17.59</time>
   <time name="total">  147.45   24.03</time>
   <dipole>
    <v name="dipole">      0.00000000       0.00000000       0.09129658 </v>
    <i name="Tr[quadrupol]">  -7020.99790461 </i>
    <i name="Echarged">      0.00000000 </i>
    <i name="Edipol_quadrupol">      0.00000000 </i>
    <i name="Eion">      0.00000000 </i>
   </dipole>
   <energy>
    <i name="e_fr_energy">   -509.49745449 </i>
    <i name="e_wo_entrp">   -509.51548252 </i>
    <i name="e_0_energy">   -509.50346383 </i>
   </energy>
  </scstep>
  <scstep>
   <time name="dav">  178.65   25.69</time>
   <time name="total">  203.36   32.12</time>
   <dipole>
    <v name="dipole">      0.00000000       0.00000000      -0.02633115 </v>
    <i name="Tr[quadrupol]">  -7020.90697257 </i>
    <i name="Echarged">      0.00000000 </i>
    <i name="Edipol_quadrupol">      0.00000000 </i>
    <i name="Eion">      0.00000000 </i>
   </dipole>
   <energy>
    <i name="e_fr_energy">   -509.78883621 </i>
    <i name="e_wo_entrp">   -509.81227202 </i>
    <i name="e_0_energy">   -509.79664815 </i>
   </energy>
  </scstep>
  <scstep>
   <time name="dav">  191.89   27.58</time>
   <time name="total">  217.10   34.02</time>
   <dipole>
    <v name="dipole">      0.00000000       0.00000000       0.07428801 </v>
    <i name="Tr[quadrupol]">  -7021.04752951 </i>
    <i name="Echarged">      0.00000000 </i>
    <i name="Edipol_quadrupol">      0.00000000 </i>
    <i name="Eion">      0.00000000 </i>
   </dipole>
   <energy>
    <i name="e_fr_energy">   -509.50314727 </i>
    <i name="e_wo_entrp">   -509.52055161 </i>
    <i name="e_0_energy">   -509.50894871 </i>
   </energy>
  </scstep>
  <scstep>
   <time name="dav">  178.40   25.67</time>
   <time name="total">  203.25   32.14</time>
   <dipole>
    <v name="dipole">      0.00000000       0.00000000       0.06516673 </v>
    <i name="Tr[quadrupol]">  -7020.95652839 </i>
    <i name="Echarged">      0.00000000 </i>
    <i name="Edipol_quadrupol">      0.00000000 </i>
    <i name="Eion">      0.00000000 </i>
   </dipole>
   <energy>
    <i name="e_fr_energy">   -509.52515625 </i>
    <i name="e_wo_entrp">   -509.54143642 </i>
    <i name="e_0_energy">   -509.53058298 </i>
   </energy>
  </scstep>
  <scstep>
   <time name="dav">  175.50   25.19</time>
   <time name="total">  201.33   31.67</time>
   <dipole>
    <v name="dipole">      0.00000000       0.00000000       0.05031031 </v>
    <i name="Tr[quadrupol]">  -7021.11515758 </i>
    <i name="Echarged">      0.00000000 </i>
    <i name="Edipol_quadrupol">      0.00000000 </i>
    <i name="Eion">      0.00000000 </i>
   </dipole>
   <energy>
    <i name="e_fr_energy">   -509.54240231 </i>
    <i name="e_wo_entrp">   -509.55885282 </i>
    <i name="e_0_energy">   -509.54788581 </i>
   </energy>
  </scstep>
  <scstep>
   <time name="dav">  169.34   24.77</time>
   <time name="total">  195.18   31.22</time>
   <dipole>
    <v name="dipole">      0.00000000       0.00000000       0.06363688 </v>
    <i name="Tr[quadrupol]">  -7021.09231920 </i>
    <i name="Echarged">      0.00000000 </i>
    <i name="Edipol_quadrupol">      0.00000000 </i>
    <i name="Eion">      0.00000000 </i>
   </dipole>
   <energy>
    <i name="e_fr_energy">   -509.53884197 </i>
    <i name="e_wo_entrp">   -509.55613272 </i>
    <i name="e_0_energy">   -509.54460556 </i>
   </energy>
  </scstep>
  <scstep>
   <time name="dav">  155.21   22.73</time>
   <time name="total">  181.26   29.23</time>
   <dipole>
    <v name="dipole">      0.00000000       0.00000000       0.06582666 </v>
    <i name="Tr[quadrupol]">  -7021.09733843 </i>
    <i name="Echarged">      0.00000000 </i>
    <i name="Edipol_quadrupol">      0.00000000 </i>
    <i name="Eion">      0.00000000 </i>
   </dipole>
   <energy>
    <i name="e_fr_energy">   -509.53931964 </i>
    <i name="e_wo_entrp">   -509.55656127 </i>
    <i name="e_0_energy">   -509.54506685 </i>
   </energy>
  </scstep>
  <scstep>
   <time name="dav">  155.58   22.42</time>
   <time name="total">  181.47   28.90</time>
   <dipole>
    <v name="dipole">      0.00000000       0.00000000       0.06679837 </v>
    <i name="Tr[quadrupol]">  -7021.09537832 </i>
    <i name="Echarged">      0.00000000 </i>
    <i name="Edipol_quadrupol">      0.00000000 </i>
    <i name="Eion">      0.00000000 </i>
   </dipole>
   <energy>
    <i name="e_fr_energy">   -509.53931367 </i>
    <i name="e_wo_entrp">   -509.55668357 </i>
    <i name="e_0_energy">   -509.54510364 </i>
   </energy>
  </scstep>
  <scstep>
   <time name="dav">  173.49   24.92</time>
   <time name="total">  198.40   31.38</time>
   <dipole>
    <v name="dipole">      0.00000000       0.00000000       0.06696508 </v>
    <i name="Tr[quadrupol]">  -7021.10119254 </i>
    <i name="Echarged">      0.00000000 </i>
    <i name="Edipol_quadrupol">      0.00000000 </i>
    <i name="Eion">      0.00000000 </i>
   </dipole>
   <energy>
    <i name="e_fr_energy">   -509.53907187 </i>
    <i name="e_wo_entrp">   -509.55642635 </i>
    <i name="e_0_energy">   -509.54485670 </i>
   </energy>
  </scstep>
  <scstep>
   <time name="dav">  181.67   26.08</time>
   <time name="total">  206.65   32.55</time>
   <dipole>
    <v name="dipole">      0.00000000       0.00000000       0.06547939 </v>
    <i name="Tr[quadrupol]">  -7021.09221245 </i>
    <i name="Echarged">      0.00000000 </i>
    <i name="Edipol_quadrupol">      0.00000000 </i>
    <i name="Eion">      0.00000000 </i>
   </dipole>
   <energy>
    <i name="e_fr_energy">   -509.53883215 </i>
    <i name="e_wo_entrp">   -509.55620521 </i>
    <i name="e_0_energy">   -509.54462317 </i>
   </energy>
  </scstep>
  <scstep>
   <time name="dav">  163.16   23.44</time>
   <time name="total">  188.12   29.90</time>
   <dipole>
    <v name="dipole">      0.00000000       0.00000000       0.06556942 </v>
    <i name="Tr[quadrupol]">  -7021.08062125 </i>
    <i name="Echarged">      0.00000000 </i>
    <i name="Edipol_quadrupol">      0.00000000 </i>
    <i name="Eion">      0.00000000 </i>
   </dipole>
   <energy>
    <i name="e_fr_energy">   -509.53884466 </i>
    <i name="e_wo_entrp">   -509.55624006 </i>
    <i name="e_0_energy">   -509.54464313 </i>
   </energy>
  </scstep>
  <scstep>
   <time name="dav">  165.87   23.83</time>
   <time name="total">  191.82   30.33</time>
   <dipole>
    <v name="dipole">      0.00000000       0.00000000       0.06575481 </v>
    <i name="Tr[quadrupol]">  -7021.06353172 </i>
    <i name="Echarged">      0.00000000 </i>
    <i name="Edipol_quadrupol">      0.00000000 </i>
    <i name="Eion">      0.00000000 </i>
   </dipole>
   <energy>
    <i name="e_fr_energy">   -509.53889775 </i>
    <i name="e_wo_entrp">   -509.55629526 </i>
    <i name="e_0_energy">   -509.54469692 </i>
   </energy>
  </scstep>
  <scstep>
   <time name="dav">  158.10   22.68</time>
   <time name="total">  184.52   29.27</time>
   <dipole>
    <v name="dipole">      0.00000000       0.00000000       0.06601727 </v>
    <i name="Tr[quadrupol]">  -7021.03508923 </i>
    <i name="Echarged">      0.00000000 </i>
    <i name="Edipol_quadrupol">      0.00000000 </i>
    <i name="Eion">      0.00000000 </i>
   </dipole>
   <energy>
    <i name="e_fr_energy">   -509.53896728 </i>
    <i name="e_wo_entrp">   -509.55636255 </i>
    <i name="e_0_energy">   -509.54476570 </i>
   </energy>
  </scstep>
  <scstep>
   <time name="dav">   71.71   14.04</time>
   <time name="total">   97.98   20.58</time>
   <dipole>
    <v name="dipole">      0.00000000       0.00000000       0.06588098 </v>
    <i name="Tr[quadrupol]">  -7021.02364957 </i>
    <i name="Echarged">      0.00000000 </i>
    <i name="Edipol_quadrupol">      0.00000000 </i>
    <i name="Eion">      0.00000000 </i>
   </dipole>
   <energy>
    <i name="e_fr_energy">   -509.53897816 </i>
    <i name="e_wo_entrp">   -509.55635938 </i>
    <i name="e_0_energy">   -509.54477190 </i>
   </energy>
  </scstep>
  <scstep>
   <time name="dav">   44.31   12.19</time>
   <time name="total">   66.02   17.79</time>
   <dipole>
    <v name="dipole">      0.00000000       0.00000000       0.06566544 </v>
    <i name="Tr[quadrupol]">  -7021.01603776 </i>
    <i name="Echarged">      0.00000000 </i>
    <i name="Edipol_quadrupol">      0.00000000 </i>
    <i name="Eion">      0.00000000 </i>
   </dipole>
   <energy>
    <i name="alphaZ">   1785.87254261 </i>
    <i name="ewald"> 213052.75157614 </i>
    <i name="hartreedc">-263083.46182528 </i>
    <i name="XCdc">    966.49456709 </i>
    <i name="pawpsdc">  54527.77199350 </i>
    <i name="pawaedc"> -55674.57997912 </i>
    <i name="eentropy">      0.01735362 </i>
    <i name="bandstr">  -4276.37685790 </i>
    <i name="atom">  52191.97164881 </i>
    <i name="e_fr_energy">   -509.53898053 </i>
    <i name="e_wo_entrp">   -509.55633415 </i>
    <i name="e_0_energy">   -509.54476507 </i>
   </energy>
  </scstep>
  <structure>
   <crystal>
    <varray name="basis" >
     <v>       8.53269958       0.00000000       0.00000000 </v>
     <v>      -0.00051933       8.49699972       0.00000000 </v>
     <v>       0.00000000       0.00000000      23.59499931 </v>
    </varray>
    <i name="volume">   1710.69280467 </i>
    <varray name="rec_basis" >
     <v>       0.11719620       0.00000716       0.00000000 </v>
     <v>       0.00000000       0.11768860       0.00000000 </v>
     <v>       0.00000000       0.00000000       0.04238186 </v>
    </varray>
   </crystal>
   <varray name="positions" >
    <v>       0.00086000       0.99993000       0.24271000 </v>
    <v>       0.16529961       0.16567231       0.30376534 </v>
    <v>       0.50199291       0.16729204       0.30400100 </v>
    <v>       0.66822000       0.00107000       0.24272000 </v>
    <v>       0.83553279       0.16780736       0.30386528 </v>
    <v>       0.00044000       0.33497000       0.24240000 </v>
    <v>       0.16658412       0.50157327       0.30417756 </v>
    <v>       0.33469000       0.33305000       0.24267000 </v>
    <v>       0.50080327       0.50069567       0.30363919 </v>
    <v>       0.83460199       0.50313789       0.30301485 </v>
    <v>       0.16801390       0.83344399       0.30433541 </v>
    <v>       0.33342000       0.66555000       0.24261000 </v>
    <v>       0.83608446       0.83221292       0.30352982 </v>
    <v>       0.00064000       0.00119000       0.00199000 </v>
    <v>      -0.00065072       0.00064203       0.36231950 </v>
    <v>       0.16843000       0.16962000       0.06269000 </v>
    <v>       0.33460000       0.00297000       0.00254000 </v>
    <v>       0.33421074       0.00225932       0.36186381 </v>
    <v>       0.50463000       0.16850000       0.06120000 </v>
    <v>       0.83272000       0.16670000       0.06193000 </v>
    <v>       0.00004000       0.33467000       0.00213000 </v>
    <v>       0.99891307       0.33395537       0.36125213 </v>
    <v>       0.16757000       0.49895000       0.06268000 </v>
    <v>       0.50099000       0.49896000       0.06206000 </v>
    <v>       0.83393000       0.50234000       0.06235000 </v>
    <v>       0.00121000       0.66785000       0.00188000 </v>
    <v>       0.00023566       0.66629519       0.36156788 </v>
    <v>       0.16792000       0.83462000       0.06228000 </v>
    <v>       0.33437000       0.66664000       0.00225000 </v>
    <v>       0.33518205       0.66580713       0.36293035 </v>
    <v>       0.50152000       0.83563000       0.06217000 </v>
    <v>       0.66753000       0.66705000       0.00175000 </v>
    <v>       0.66669089       0.66507364       0.36114411 </v>
    <v>       0.83293000       0.83584000       0.06235000 </v>
    <v>       0.00121000       0.00098000       0.12225000 </v>
    <v>       0.16700000       0.16811000       0.18239000 </v>
    <v>       0.33470000       0.00227000       0.12192000 </v>
    <v>       0.50174000       0.16716000       0.18263000 </v>
    <v>       0.83421000       0.16639000       0.18283000 </v>
    <v>       0.16964000       0.49868000       0.18209000 </v>
    <v>       0.50219000       0.50081000       0.18317000 </v>
    <v>       0.66741000       0.33395000       0.12233000 </v>
    <v>       0.83134000       0.50253000       0.18283000 </v>
    <v>       0.00132000       0.66795000       0.12253000 </v>
    <v>       0.16898000       0.83509000       0.18243000 </v>
    <v>       0.33446000       0.66703000       0.12223000 </v>
    <v>       0.49971000       0.83538000       0.18278000 </v>
    <v>       0.66698000       0.66840000       0.12259000 </v>
    <v>       0.83488000       0.83403000       0.18294000 </v>
    <v>       0.33558000       0.99863000       0.24353000 </v>
    <v>       0.66801000       0.33262000       0.24229000 </v>
    <v>       0.00448000       0.66739000       0.24217000 </v>
    <v>       0.49825326       0.83223594       0.30286187 </v>
    <v>       0.66521000       0.67351000       0.24327000 </v>
    <v>       0.66620000       0.99680000       0.00000000 </v>
    <v>       0.66608456       0.99352019       0.36048010 </v>
    <v>       0.33213000       0.33386000       0.00135000 </v>
    <v>       0.32961492       0.33404383       0.36217390 </v>
    <v>       0.67040000       0.33673000       0.00321000 </v>
    <v>       0.67181689       0.33800746       0.36365847 </v>
    <v>       0.66728000       0.99998000       0.12246000 </v>
    <v>       0.99806000       0.33495000       0.12235000 </v>
    <v>       0.33675000       0.33238000       0.12261000 </v>
   </varray>
  </structure>
  <varray name="forces" >
   <v>       0.05313280      -0.06638747      -0.15947347 </v>
   <v>      -0.05052641      -0.08035579       0.00857597 </v>
   <v>       0.01510152      -0.00003474       0.14926705 </v>
   <v>       0.05110424       0.00533263      -0.10628955 </v>
   <v>       0.14029054      -0.02538162       0.07067323 </v>
   <v>       0.02297736       0.01255473      -0.13098152 </v>
   <v>      -0.04497000       0.06381943       0.02208226 </v>
   <v>      -0.01818303       0.00018247      -0.11440536 </v>
   <v>      -0.05522387       0.02847697       0.06456747 </v>
   <v>       0.10492744       0.10050655      -0.05164461 </v>
   <v>       0.00519280       0.03839144       0.06678763 </v>
   <v>      -0.12561770       0.00297726      -0.16666868 </v>
   <v>       0.08490971      -0.00577127       0.08989897 </v>
   <v>       0.01889575      -0.04124957       0.25919824 </v>
   <v>      -0.09982279       0.10376506      -0.17207859 </v>
   <v>      -0.32197545      -0.27804752       0.00712951 </v>
   <v>      -0.03501243      -0.01885385       0.38846555 </v>
   <v>       0.07843656       0.15542303      -0.04663724 </v>
   <v>      -0.20798299      -0.15750725       0.58038762 </v>
   <v>       0.43219744       0.15283690       0.20898267 </v>
   <v>      -0.08082923       0.01835796       0.40055626 </v>
   <v>      -0.02927507      -0.07749421      -0.15467841 </v>
   <v>      -0.25651960       0.30790274      -0.00628565 </v>
   <v>       0.11604777       0.48554133       0.21258019 </v>
   <v>       0.14812919       0.12507058      -0.09155213 </v>
   <v>       0.04103115       0.00845001       0.12786802 </v>
   <v>      -0.06209729      -0.01870758      -0.13528817 </v>
   <v>      -0.02057156       0.00469469      -0.36129287 </v>
   <v>      -0.10246663       0.00954407       0.25542952 </v>
   <v>       0.10851047      -0.09125787      -0.17113462 </v>
   <v>      -0.28783952      -0.35798924       0.02518751 </v>
   <v>       0.00348557      -0.07327822       0.41379715 </v>
   <v>      -0.05233036      -0.04414760      -0.05792611 </v>
   <v>       0.35561269      -0.35455230       0.00836772 </v>
   <v>       0.02223364       0.13190852      -0.02983625 </v>
   <v>       0.00155263      -0.01056957       0.07974464 </v>
   <v>       0.06145629       0.04912363       0.03657345 </v>
   <v>      -0.03274092      -0.01654764       0.17174031 </v>
   <v>       0.00384097       0.00857515       0.18325450 </v>
   <v>      -0.03618942       0.00405360       0.20371207 </v>
   <v>       0.04705941       0.02919888       0.19795464 </v>
   <v>       0.04870328       0.00385839      -0.00130032 </v>
   <v>       0.02898740       0.05309631       0.16217241 </v>
   <v>      -0.04738934      -0.06833906      -0.07716546 </v>
   <v>       0.02082771       0.03912869       0.09557956 </v>
   <v>       0.11937833       0.00294631      -0.04641817 </v>
   <v>      -0.00316798      -0.01098809       0.05499489 </v>
   <v>      -0.06636380      -0.07750117       0.03667962 </v>
   <v>       0.01515948      -0.04950476       0.18696039 </v>
   <v>       0.04908783      -0.11490559      -0.02552048 </v>
   <v>      -0.01499578      -0.04651841      -0.18414000 </v>
   <v>       0.06573499      -0.00128855      -0.27276326 </v>
   <v>      -0.12948083      -0.03529715      -0.22841828 </v>
   <v>      -0.12448745       0.15727731      -0.06781293 </v>
   <v>       0.06616602       0.42678398      -0.79153863 </v>
   <v>       0.03686951      -0.16524828       0.22490456 </v>
   <v>       0.32932410       0.00365186      -0.65831418 </v>
   <v>      -0.22533709      -0.05380037       0.21921056 </v>
   <v>      -0.29796494      -0.34967709      -0.24172308 </v>
   <v>       0.16549014       0.12864454       0.24999433 </v>
   <v>      -0.07941906       0.16316799      -0.35213055 </v>
   <v>      -0.04378937      -0.04401796      -0.08166901 </v>
   <v>       0.09071522      -0.09002324      -0.47819090 </v>
  </varray>
  <varray name="stress" >
   <v>     -18.52134516       0.43513270       0.01710451 </v>
   <v>       0.43513211     -18.91084416       0.04812964 </v>
   <v>       0.01710397       0.04812955      -3.75626414 </v>
  </varray>
  <energy>
   <i name="e_fr_energy">   -509.53898053 </i>
   <i name="e_wo_entrp">   -509.55633415 </i>
   <i name="e_0_energy">   -509.54476507 </i>
  </energy>
  <time name="totalsc"> 2934.30  494.24</time>
 </calculation>
 <calculation>
  <scstep>
   <time name="dav">  130.45   18.89</time>
   <time name="total">  155.13   25.33</time>
   <dipole>
    <v name="dipole">      0.00000000       0.00000000       0.06560782 </v>
    <i name="Tr[quadrupol]">  -7015.65350527 </i>
    <i name="Echarged">      0.00000000 </i>
    <i name="Edipol_quadrupol">      0.00000000 </i>
    <i name="Eion">      0.00000000 </i>
   </dipole>
   <energy>
    <i name="alphaZ">   1785.86997613 </i>
    <i name="ewald"> 212981.10618217 </i>
    <i name="hartreedc">-263012.07700301 </i>
    <i name="XCdc">    966.52663584 </i>
    <i name="pawpsdc">  54527.75476437 </i>
    <i name="pawaedc"> -55674.56830391 </i>
    <i name="eentropy">      0.01834975 </i>
    <i name="bandstr">  -4275.75271983 </i>
    <i name="atom">  52191.97164881 </i>
    <i name="e_fr_energy">   -509.15046969 </i>
    <i name="e_wo_entrp">   -509.16881944 </i>
    <i name="e_0_energy">   -509.15658627 </i>
   </energy>
  </scstep>
  <scstep>
   <time name="dav">  123.08   17.75</time>
   <time name="total">  148.61   24.18</time>
   <dipole>
    <v name="dipole">      0.00000000       0.00000000       0.10138887 </v>
    <i name="Tr[quadrupol]">  -7015.67295532 </i>
    <i name="Echarged">      0.00000000 </i>
    <i name="Edipol_quadrupol">      0.00000000 </i>
    <i name="Eion">      0.00000000 </i>
   </dipole>
   <energy>
    <i name="e_fr_energy">   -509.53047749 </i>
    <i name="e_wo_entrp">   -509.55071693 </i>
    <i name="e_0_energy">   -509.53722397 </i>
   </energy>
  </scstep>
  <scstep>
   <time name="dav">  175.04   25.17</time>
   <time name="total">  200.54   31.59</time>
   <dipole>
    <v name="dipole">      0.00000000       0.00000000      -0.02457538 </v>
    <i name="Tr[quadrupol]">  -7015.51099542 </i>
    <i name="Echarged">      0.00000000 </i>
    <i name="Edipol_quadrupol">      0.00000000 </i>
    <i name="Eion">      0.00000000 </i>
   </dipole>
   <energy>
    <i name="e_fr_energy">   -509.81591899 </i>
    <i name="e_wo_entrp">   -509.84066257 </i>
    <i name="e_0_energy">   -509.82416685 </i>
   </energy>
  </scstep>
  <scstep>
   <time name="dav">  187.64   26.95</time>
   <time name="total">  212.51   33.39</time>
   <dipole>
    <v name="dipole">      0.00000000       0.00000000       0.07565395 </v>
    <i name="Tr[quadrupol]">  -7015.67655239 </i>
    <i name="Echarged">      0.00000000 </i>
    <i name="Edipol_quadrupol">      0.00000000 </i>
    <i name="Eion">      0.00000000 </i>
   </dipole>
   <energy>
    <i name="e_fr_energy">   -509.52937228 </i>
    <i name="e_wo_entrp">   -509.54840932 </i>
    <i name="e_0_energy">   -509.53571796 </i>
   </energy>
  </scstep>
  <scstep>
   <time name="dav">  175.19   25.14</time>
   <time name="total">  200.79   31.55</time>
   <dipole>
    <v name="dipole">      0.00000000       0.00000000       0.06808039 </v>
    <i name="Tr[quadrupol]">  -7015.57875793 </i>
    <i name="Echarged">      0.00000000 </i>
    <i name="Edipol_quadrupol">      0.00000000 </i>
    <i name="Eion">      0.00000000 </i>
   </dipole>
   <energy>
    <i name="e_fr_energy">   -509.55360316 </i>
    <i name="e_wo_entrp">   -509.57158078 </i>
    <i name="e_0_energy">   -509.55959570 </i>
   </energy>
  </scstep>
  <scstep>
   <time name="dav">  173.97   24.98</time>
   <time name="total">  199.78   31.45</time>
   <dipole>
    <v name="dipole">      0.00000000       0.00000000       0.05169908 </v>
    <i name="Tr[quadrupol]">  -7015.74224340 </i>
    <i name="Echarged">      0.00000000 </i>
    <i name="Edipol_quadrupol">      0.00000000 </i>
    <i name="Eion">      0.00000000 </i>
   </dipole>
   <energy>
    <i name="e_fr_energy">   -509.57333235 </i>
    <i name="e_wo_entrp">   -509.59163692 </i>
    <i name="e_0_energy">   -509.57943387 </i>
   </energy>
  </scstep>
  <scstep>
   <time name="dav">  170.17   24.46</time>
   <time name="total">  196.34   30.95</time>
   <dipole>
    <v name="dipole">      0.00000000       0.00000000       0.06547962 </v>
    <i name="Tr[quadrupol]">  -7015.71920197 </i>
    <i name="Echarged">      0.00000000 </i>
    <i name="Edipol_quadrupol">      0.00000000 </i>
    <i name="Eion">      0.00000000 </i>
   </dipole>
   <energy>
    <i name="e_fr_energy">   -509.56905930 </i>
    <i name="e_wo_entrp">   -509.58810672 </i>
    <i name="e_0_energy">   -509.57540844 </i>
   </energy>
  </scstep>
  <scstep>
   <time name="dav">  164.24   23.62</time>
   <time name="total">  189.00   30.04</time>
   <dipole>
    <v name="dipole">      0.00000000       0.00000000       0.06821685 </v>
    <i name="Tr[quadrupol]">  -7015.72422629 </i>
    <i name="Echarged">      0.00000000 </i>
    <i name="Edipol_quadrupol">      0.00000000 </i>
    <i name="Eion">      0.00000000 </i>
   </dipole>
   <energy>
    <i name="e_fr_energy">   -509.56951703 </i>
    <i name="e_wo_entrp">   -509.58852899 </i>
    <i name="e_0_energy">   -509.57585435 </i>
   </energy>
  </scstep>
  <scstep>
   <time name="dav">  150.65   21.63</time>
   <time name="total">  176.37   28.05</time>
   <dipole>
    <v name="dipole">      0.00000000       0.00000000       0.06944853 </v>
    <i name="Tr[quadrupol]">  -7015.72334233 </i>
    <i name="Echarged">      0.00000000 </i>
    <i name="Edipol_quadrupol">      0.00000000 </i>
    <i name="Eion">      0.00000000 </i>
   </dipole>
   <energy>
    <i name="e_fr_energy">   -509.56957102 </i>
    <i name="e_wo_entrp">   -509.58873715 </i>
    <i name="e_0_energy">   -509.57595973 </i>
   </energy>
  </scstep>
  <scstep>
   <time name="dav">  169.07   24.31</time>
   <time name="total">  194.77   30.74</time>
   <dipole>
    <v name="dipole">      0.00000000       0.00000000       0.06988202 </v>
    <i name="Tr[quadrupol]">  -7015.73057202 </i>
    <i name="Echarged">      0.00000000 </i>
    <i name="Edipol_quadrupol">      0.00000000 </i>
    <i name="Eion">      0.00000000 </i>
   </dipole>
   <energy>
    <i name="e_fr_energy">   -509.56937028 </i>
    <i name="e_wo_entrp">   -509.58854164 </i>
    <i name="e_0_energy">   -509.57576073 </i>
   </energy>
  </scstep>
  <scstep>
   <time name="dav">  179.45   25.89</time>
   <time name="total">  204.34   32.34</time>
   <dipole>
    <v name="dipole">      0.00000000       0.00000000       0.06822294 </v>
    <i name="Tr[quadrupol]">  -7015.71949417 </i>
    <i name="Echarged">      0.00000000 </i>
    <i name="Edipol_quadrupol">      0.00000000 </i>
    <i name="Eion">      0.00000000 </i>
   </dipole>
   <energy>
    <i name="e_fr_energy">   -509.56908739 </i>
    <i name="e_wo_entrp">   -509.58828970 </i>
    <i name="e_0_energy">   -509.57548816 </i>
   </energy>
  </scstep>
  <scstep>
   <time name="dav">  162.23   23.43</time>
   <time name="total">  187.16   29.94</time>
   <dipole>
    <v name="dipole">      0.00000000       0.00000000       0.06830417 </v>
    <i name="Tr[quadrupol]">  -7015.70661411 </i>
    <i name="Echarged">      0.00000000 </i>
    <i name="Edipol_quadrupol">      0.00000000 </i>
    <i name="Eion">      0.00000000 </i>
   </dipole>
   <energy>
    <i name="e_fr_energy">   -509.56912782 </i>
    <i name="e_wo_entrp">   -509.58833977 </i>
    <i name="e_0_energy">   -509.57553180 </i>
   </energy>
  </scstep>
  <scstep>
   <time name="dav">  165.72   23.77</time>
   <time name="total">  191.59   30.24</time>
   <dipole>
    <v name="dipole">      0.00000000       0.00000000       0.06840663 </v>
    <i name="Tr[quadrupol]">  -7015.68927625 </i>
    <i name="Echarged">      0.00000000 </i>
    <i name="Edipol_quadrupol">      0.00000000 </i>
    <i name="Eion">      0.00000000 </i>
   </dipole>
   <energy>
    <i name="e_fr_energy">   -509.56919464 </i>
    <i name="e_wo_entrp">   -509.58841967 </i>
    <i name="e_0_energy">   -509.57560298 </i>
   </energy>
  </scstep>
  <scstep>
   <time name="dav">  163.05   23.54</time>
   <time name="total">  188.25   30.05</time>
   <dipole>
    <v name="dipole">      0.00000000       0.00000000       0.06867351 </v>
    <i name="Tr[quadrupol]">  -7015.65967226 </i>
    <i name="Echarged">      0.00000000 </i>
    <i name="Edipol_quadrupol">      0.00000000 </i>
    <i name="Eion">      0.00000000 </i>
   </dipole>
   <energy>
    <i name="e_fr_energy">   -509.56927511 </i>
    <i name="e_wo_entrp">   -509.58847759 </i>
    <i name="e_0_energy">   -509.57567594 </i>
   </energy>
  </scstep>
  <scstep>
   <time name="dav">   78.81   14.80</time>
   <time name="total">  104.29   21.32</time>
   <dipole>
    <v name="dipole">      0.00000000       0.00000000       0.06853217 </v>
    <i name="Tr[quadrupol]">  -7015.64749272 </i>
    <i name="Echarged">      0.00000000 </i>
    <i name="Edipol_quadrupol">      0.00000000 </i>
    <i name="Eion">      0.00000000 </i>
   </dipole>
   <energy>
    <i name="e_fr_energy">   -509.56928918 </i>
    <i name="e_wo_entrp">   -509.58848674 </i>
    <i name="e_0_energy">   -509.57568837 </i>
   </energy>
  </scstep>
  <scstep>
   <time name="dav">   43.76   12.37</time>
   <time name="total">   65.24   17.94</time>
   <dipole>
    <v name="dipole">      0.00000000       0.00000000       0.06834033 </v>
    <i name="Tr[quadrupol]">  -7015.63974812 </i>
    <i name="Echarged">      0.00000000 </i>
    <i name="Edipol_quadrupol">      0.00000000 </i>
    <i name="Eion">      0.00000000 </i>
   </dipole>
   <energy>
    <i name="alphaZ">   1785.90689190 </i>
    <i name="ewald"> 212981.10618217 </i>
    <i name="hartreedc">-263011.67011154 </i>
    <i name="XCdc">    966.63828835 </i>
    <i name="pawpsdc">  54538.54514455 </i>
    <i name="pawaedc"> -55685.46784583 </i>
    <i name="eentropy">      0.01917717 </i>
    <i name="bandstr">  -4276.61866742 </i>
    <i name="atom">  52191.97164881 </i>
    <i name="e_fr_energy">   -509.56929184 </i>
    <i name="e_wo_entrp">   -509.58846901 </i>
    <i name="e_0_energy">   -509.57568423 </i>
   </energy>
  </scstep>
  <structure>
   <crystal>
    <varray name="basis" >
     <v>       8.53269958       0.00000000       0.00000000 </v>
     <v>      -0.00051933       8.49699972       0.00000000 </v>
     <v>       0.00000000       0.00000000      23.59499931 </v>
    </varray>
    <i name="volume">   1710.69280467 </i>
    <varray name="rec_basis" >
     <v>       0.11719620       0.00000716       0.00000000 </v>
     <v>       0.00000000       0.11768860       0.00000000 </v>
     <v>       0.00000000       0.00000000       0.04238186 </v>
    </varray>
   </crystal>
   <varray name="positions" >
    <v>       0.00086000       0.99993000       0.24271000 </v>
    <v>       0.16407630       0.16448404       0.30399806 </v>
    <v>       0.50161727       0.16676421       0.30438303 </v>
    <v>       0.66822000       0.00107000       0.24272000 </v>
    <v>       0.83805978       0.16748005       0.30419144 </v>
    <v>       0.00044000       0.33497000       0.24240000 </v>
    <v>       0.16563397       0.50262031       0.30441994 </v>
    <v>       0.33469000       0.33305000       0.24267000 </v>
    <v>       0.50020349       0.50193620       0.30382334 </v>
    <v>       0.83615405       0.50438455       0.30294034 </v>
    <v>       0.16780448       0.83377235       0.30474573 </v>
    <v>       0.33342000       0.66555000       0.24261000 </v>
    <v>       0.83752126       0.83185911       0.30401880 </v>
    <v>       0.00064000       0.00119000       0.00199000 </v>
    <v>      -0.00140611       0.00146609       0.36152025 </v>
    <v>       0.16843000       0.16962000       0.06269000 </v>
    <v>       0.33460000       0.00297000       0.00254000 </v>
    <v>       0.33471993       0.00349813       0.36163640 </v>
    <v>       0.50463000       0.16850000       0.06120000 </v>
    <v>       0.83272000       0.16670000       0.06193000 </v>
    <v>       0.00004000       0.33467000       0.00213000 </v>
    <v>       0.99862671       0.33327624       0.36062206 </v>
    <v>       0.16757000       0.49895000       0.06268000 </v>
    <v>       0.50099000       0.49896000       0.06206000 </v>
    <v>       0.83393000       0.50234000       0.06235000 </v>
    <v>       0.00121000       0.66785000       0.00188000 </v>
    <v>      -0.00019094       0.66611977       0.36093394 </v>
    <v>       0.16792000       0.83462000       0.06228000 </v>
    <v>       0.33437000       0.66664000       0.00225000 </v>
    <v>       0.33591726       0.66511299       0.36233075 </v>
    <v>       0.50152000       0.83563000       0.06217000 </v>
    <v>       0.66753000       0.66705000       0.00175000 </v>
    <v>       0.66644060       0.66460387       0.36100009 </v>
    <v>       0.83293000       0.83584000       0.06235000 </v>
    <v>       0.00121000       0.00098000       0.12225000 </v>
    <v>       0.16700000       0.16811000       0.18239000 </v>
    <v>       0.33470000       0.00227000       0.12192000 </v>
    <v>       0.50174000       0.16716000       0.18263000 </v>
    <v>       0.83421000       0.16639000       0.18283000 </v>
    <v>       0.16964000       0.49868000       0.18209000 </v>
    <v>       0.50219000       0.50081000       0.18317000 </v>
    <v>       0.66741000       0.33395000       0.12233000 </v>
    <v>       0.83134000       0.50253000       0.18283000 </v>
    <v>       0.00132000       0.66795000       0.12253000 </v>
    <v>       0.16898000       0.83509000       0.18243000 </v>
    <v>       0.33446000       0.66703000       0.12223000 </v>
    <v>       0.49971000       0.83538000       0.18278000 </v>
    <v>       0.66698000       0.66840000       0.12259000 </v>
    <v>       0.83488000       0.83403000       0.18294000 </v>
    <v>       0.33558000       0.99863000       0.24353000 </v>
    <v>       0.66801000       0.33262000       0.24229000 </v>
    <v>       0.00448000       0.66739000       0.24217000 </v>
    <v>       0.49654847       0.83145658       0.30214148 </v>
    <v>       0.66521000       0.67351000       0.24327000 </v>
[...]
       <r>   -39.1238    -0.0022    42.0000 </r>
       <r>   -38.9535    -0.0000    42.0000 </r>
       <r>   -38.7833    -0.0000    42.0000 </r>
       <r>   -38.6130     0.0000    42.0000 </r>
       <r>   -38.4428     0.0000    42.0000 </r>
       <r>   -38.2725     0.0000    42.0000 </r>
       <r>   -38.1023     0.0000    42.0000 </r>
       <r>   -37.9320     0.0000    42.0000 </r>
       <r>   -37.7618     0.0000    42.0000 </r>
       <r>   -37.5916     0.0000    42.0000 </r>
       <r>   -37.4213     0.0000    42.0000 </r>
       <r>   -37.2511     0.0000    42.0000 </r>
       <r>   -37.0808     0.0000    42.0000 </r>
       <r>   -36.9106     0.0000    42.0000 </r>
       <r>   -36.7403     0.0000    42.0000 </r>
       <r>   -36.5701     0.0000    42.0000 </r>
       <r>   -36.3998     0.0000    42.0000 </r>
       <r>   -36.2296     0.0000    42.0000 </r>
       <r>   -36.0593     0.0000    42.0000 </r>
       <r>   -35.8891     0.0000    42.0000 </r>
       <r>   -35.7189     0.0000    42.0000 </r>
       <r>   -35.5486     0.0000    42.0000 </r>
       <r>   -35.3784     0.0000    42.0000 </r>
       <r>   -35.2081     0.0000    42.0000 </r>
       <r>   -35.0379     0.0000    42.0000 </r>
       <r>   -34.8676     0.0000    42.0000 </r>
       <r>   -34.6974     0.0000    42.0000 </r>
       <r>   -34.5271     0.0000    42.0000 </r>
       <r>   -34.3569     0.0000    42.0000 </r>
       <r>   -34.1866     0.0000    42.0000 </r>
       <r>   -34.0164     0.0000    42.0000 </r>
       <r>   -33.8462     0.0000    42.0000 </r>
       <r>   -33.6759     0.0000    42.0000 </r>
       <r>   -33.5057     0.0000    42.0000 </r>
       <r>   -33.3354     0.0000    42.0000 </r>
       <r>   -33.1652     0.0000    42.0000 </r>
       <r>   -32.9949     0.0000    42.0000 </r>
       <r>   -32.8247     0.0000    42.0000 </r>
       <r>   -32.6544     0.0000    42.0000 </r>
       <r>   -32.4842     0.0000    42.0000 </r>
       <r>   -32.3139     0.0000    42.0000 </r>
       <r>   -32.1437     0.0000    42.0000 </r>
       <r>   -31.9735     0.0000    42.0000 </r>
       <r>   -31.8032     0.0000    42.0000 </r>
       <r>   -31.6330     0.0000    42.0000 </r>
       <r>   -31.4627     0.0000    42.0000 </r>
       <r>   -31.2925     0.0000    42.0000 </r>
       <r>   -31.1222     0.0000    42.0000 </r>
       <r>   -30.9520     0.0000    42.0000 </r>
       <r>   -30.7817     0.0000    42.0000 </r>
       <r>   -30.6115     0.0000    42.0000 </r>
       <r>   -30.4413     0.0000    42.0000 </r>
       <r>   -30.2710     0.0000    42.0000 </r>
       <r>   -30.1008     0.0000    42.0000 </r>
       <r>   -29.9305     0.0000    42.0000 </r>
       <r>   -29.7603     0.0000    42.0000 </r>
       <r>   -29.5900     0.0000    42.0000 </r>
       <r>   -29.4198     0.0000    42.0000 </r>
       <r>   -29.2495     0.0000    42.0000 </r>
       <r>   -29.0793     0.0000    42.0000 </r>
       <r>   -28.9090     0.0000    42.0000 </r>
       <r>   -28.7388     0.0000    42.0000 </r>
       <r>   -28.5686     0.0000    42.0000 </r>
       <r>   -28.3983     0.0000    42.0000 </r>
       <r>   -28.2281     0.0000    42.0000 </r>
       <r>   -28.0578     0.0000    42.0000 </r>
       <r>   -27.8876     0.0000    42.0000 </r>
       <r>   -27.7173     0.0000    42.0000 </r>
       <r>   -27.5471     0.0000    42.0000 </r>
       <r>   -27.3768     0.0000    42.0000 </r>
       <r>   -27.2066     0.0000    42.0000 </r>
       <r>   -27.0363     0.0000    42.0000 </r>
       <r>   -26.8661     0.0000    42.0000 </r>
       <r>   -26.6959     0.0000    42.0000 </r>
       <r>   -26.5256     0.0000    42.0000 </r>
       <r>   -26.3554     0.0000    42.0000 </r>
       <r>   -26.1851     0.0000    42.0000 </r>
       <r>   -26.0149     0.0000    42.0000 </r>
       <r>   -25.8446     0.0000    42.0000 </r>
       <r>   -25.6744     0.0000    42.0000 </r>
       <r>   -25.5041     0.0000    42.0000 </r>
       <r>   -25.3339     0.0000    42.0000 </r>
       <r>   -25.1637     0.0000    42.0000 </r>
       <r>   -24.9934     0.0000    42.0000 </r>
       <r>   -24.8232     0.0000    42.0000 </r>
       <r>   -24.6529     0.0000    42.0000 </r>
       <r>   -24.4827     0.0000    42.0000 </r>
       <r>   -24.3124     0.0000    42.0000 </r>
       <r>   -24.1422     0.0000    42.0000 </r>
       <r>   -23.9719     0.0000    42.0000 </r>
       <r>   -23.8017     0.0000    42.0000 </r>
       <r>   -23.6314     0.0000    42.0000 </r>
       <r>   -23.4612     0.0000    42.0000 </r>
       <r>   -23.2910     0.0000    42.0000 </r>
       <r>   -23.1207     0.0000    42.0000 </r>
       <r>   -22.9505     0.0000    42.0000 </r>
       <r>   -22.7802     0.0000    42.0000 </r>
       <r>   -22.6100     0.0000    42.0000 </r>
       <r>   -22.4397     0.0000    42.0000 </r>
       <r>   -22.2695     0.0000    42.0000 </r>
       <r>   -22.0992     0.0000    42.0000 </r>
       <r>   -21.9290     0.0000    42.0000 </r>
       <r>   -21.7587     0.0000    42.0000 </r>
       <r>   -21.5885     0.0000    42.0000 </r>
       <r>   -21.4183     0.0000    42.0000 </r>
       <r>   -21.2480     0.0000    42.0000 </r>
       <r>   -21.0778     0.0000    42.0000 </r>
       <r>   -20.9075     0.0000    42.0000 </r>
       <r>   -20.7373     0.0000    42.0000 </r>
       <r>   -20.5670     0.0000    42.0000 </r>
       <r>   -20.3968     0.0000    42.0000 </r>
       <r>   -20.2265     0.0000    42.0000 </r>
       <r>   -20.0563     0.0000    42.0000 </r>
       <r>   -19.8861     0.0000    42.0000 </r>
       <r>   -19.7158     0.0000    42.0000 </r>
       <r>   -19.5456     0.0000    42.0000 </r>
       <r>   -19.3753     0.0000    42.0000 </r>
       <r>   -19.2051     0.0000    42.0000 </r>
       <r>   -19.0348     0.0000    42.0000 </r>
       <r>   -18.8646     0.0000    42.0000 </r>
       <r>   -18.6943     0.0000    42.0000 </r>
       <r>   -18.5241     0.0000    42.0000 </r>
       <r>   -18.3538     0.0000    42.0000 </r>
       <r>   -18.1836     0.0000    42.0000 </r>
       <r>   -18.0134     0.0000    42.0000 </r>
       <r>   -17.8431     0.0000    42.0000 </r>
       <r>   -17.6729     0.0000    42.0000 </r>
       <r>   -17.5026     0.0000    42.0000 </r>
       <r>   -17.3324     0.0000    42.0000 </r>
       <r>   -17.1621     0.0000    42.0000 </r>
       <r>   -16.9919     0.0000    42.0000 </r>
       <r>   -16.8216     0.0000    42.0000 </r>
       <r>   -16.6514     0.0000    42.0000 </r>
       <r>   -16.4811     0.0000    42.0000 </r>
       <r>   -16.3109     0.0000    42.0000 </r>
       <r>   -16.1407     0.0000    42.0000 </r>
       <r>   -15.9704     0.0000    42.0000 </r>
       <r>   -15.8002     0.0000    42.0000 </r>
       <r>   -15.6299     0.0000    42.0000 </r>
       <r>   -15.4597     0.0000    42.0000 </r>
       <r>   -15.2894     0.0000    42.0000 </r>
       <r>   -15.1192     0.0000    42.0000 </r>
       <r>   -14.9489     0.0000    42.0000 </r>
       <r>   -14.7787     0.0000    42.0000 </r>
       <r>   -14.6084     0.0000    42.0000 </r>
       <r>   -14.4382     0.0000    42.0000 </r>
       <r>   -14.2680     0.0000    42.0000 </r>
       <r>   -14.0977     0.0000    42.0000 </r>
       <r>   -13.9275     0.0000    42.0000 </r>
       <r>   -13.7572     0.0000    42.0000 </r>
       <r>   -13.5870     0.0000    42.0000 </r>
       <r>   -13.4167     0.0000    42.0000 </r>
       <r>   -13.2465     0.0000    42.0000 </r>
       <r>   -13.0762     0.0000    42.0000 </r>
       <r>   -12.9060     0.0000    42.0000 </r>
       <r>   -12.7358     0.0000    42.0000 </r>
       <r>   -12.5655     0.0000    42.0000 </r>
       <r>   -12.3953     0.0000    42.0000 </r>
       <r>   -12.2250     0.0000    42.0000 </r>
       <r>   -12.0548     0.0000    42.0000 </r>
       <r>   -11.8845     0.0000    42.0000 </r>
       <r>   -11.7143     0.0000    42.0000 </r>
       <r>   -11.5440     0.0000    42.0000 </r>
       <r>   -11.3738     0.0000    42.0000 </r>
       <r>   -11.2035     0.0000    42.0000 </r>
       <r>   -11.0333     0.0000    42.0000 </r>
       <r>   -10.8631     0.0000    42.0000 </r>
       <r>   -10.6928     0.0000    42.0000 </r>
       <r>   -10.5226     0.0000    42.0000 </r>
       <r>   -10.3523     0.0000    42.0000 </r>
       <r>   -10.1821     0.0000    42.0000 </r>
       <r>   -10.0118     0.0000    42.0000 </r>
       <r>    -9.8416     0.0000    42.0000 </r>
       <r>    -9.6713     0.0000    42.0000 </r>
       <r>    -9.5011     0.0000    42.0000 </r>
       <r>    -9.3308     0.0000    42.0000 </r>
       <r>    -9.1606     0.0000    42.0000 </r>
       <r>    -8.9904     0.0000    42.0000 </r>
       <r>    -8.8201     0.0000    42.0000 </r>
       <r>    -8.6499     0.0000    42.0000 </r>
       <r>    -8.4796    -0.0000    42.0000 </r>
       <r>    -8.3094    -0.0000    42.0000 </r>
       <r>    -8.1391    -0.0000    42.0000 </r>
       <r>    -7.9689    -0.0000    42.0000 </r>
       <r>    -7.7986    -0.0000    42.0000 </r>
       <r>    -7.6284    -0.0003    41.9999 </r>
       <r>    -7.4582    -0.0134    41.9977 </r>
       <r>    -7.2879     0.0482    42.0059 </r>
       <r>    -7.1177     0.8630    42.1528 </r>
       <r>    -6.9474     1.7709    42.4543 </r>
       <r>    -6.7772     0.7193    42.5767 </r>
       <r>    -6.6069     1.6917    42.8648 </r>
       <r>    -6.4367     2.4911    43.2888 </r>
       <r>    -6.2664     0.2440    43.3304 </r>
       <r>    -6.0962     2.2493    43.7133 </r>
       <r>    -5.9259     4.2344    44.4342 </r>
       <r>    -5.7557     3.0096    44.9466 </r>
       <r>    -5.5855     3.0621    45.4679 </r>
       <r>    -5.4152     3.5728    46.0761 </r>
       <r>    -5.2450     0.8681    46.2239 </r>
       <r>    -5.0747     4.5990    47.0069 </r>
       <r>    -4.9045     5.7932    47.9932 </r>
       <r>    -4.7342     3.2745    48.5506 </r>
       <r>    -4.5640     5.6629    49.5147 </r>
       <r>    -4.3937     2.9958    50.0247 </r>
       <r>    -4.2235     8.2335    51.4265 </r>
       <r>    -4.0532     7.0416    52.6253 </r>
       <r>    -3.8830     7.6549    53.9285 </r>
       <r>    -3.7128     6.2374    54.9904 </r>
       <r>    -3.5425     7.9991    56.3522 </r>
       <r>    -3.3723    12.3208    58.4497 </r>
       <r>    -3.2020    17.1600    61.3711 </r>
       <r>    -3.0318    18.8524    64.5807 </r>
       <r>    -2.8615    22.8702    68.4742 </r>
       <r>    -2.6913    18.1882    71.5707 </r>
       <r>    -2.5210    25.8338    75.9687 </r>
       <r>    -2.3508    32.5677    81.5132 </r>
       <r>    -2.1805    32.2701    87.0070 </r>
       <r>    -2.0103    33.1177    92.6452 </r>
       <r>    -1.8401    33.0044    98.2640 </r>
       <r>    -1.6698    36.5719   104.4902 </r>
       <r>    -1.4996    47.1250   112.5130 </r>
       <r>    -1.3293    52.8527   121.5109 </r>
       <r>    -1.1591    51.4419   130.2687 </r>
       <r>    -0.9888    51.0837   138.9654 </r>
       <r>    -0.8186    53.5105   148.0753 </r>
       <r>    -0.6483    61.2550   158.5037 </r>
       <r>    -0.4781    64.7842   169.5329 </r>
       <r>    -0.3079    65.9821   180.7660 </r>
       <r>    -0.1376    58.9354   190.7995 </r>
       <r>     0.0326    48.0589   198.9813 </r>
       <r>     0.2029    41.0739   205.9740 </r>
       <r>     0.3731    33.9481   211.7535 </r>
       <r>     0.5434    29.0318   216.6960 </r>
       <r>     0.7136    30.5214   221.8921 </r>
       <r>     0.8839    37.0646   228.2022 </r>
       <r>     1.0541    43.7660   235.6531 </r>
       <r>     1.2244    54.3140   244.8998 </r>
       <r>     1.3946    56.5398   254.5255 </r>
       <r>     1.5648    63.4089   265.3205 </r>
       <r>     1.7351    72.0976   277.5948 </r>
       <r>     1.9053    70.5943   289.6131 </r>
       <r>     2.0756    84.5983   304.0156 </r>
       <r>     2.2458    94.0083   320.0201 </r>
       <r>     2.4161    96.9497   336.5253 </r>
       <r>     2.5863    86.1985   351.2002 </r>
       <r>     2.7566    62.0658   361.7666 </r>
       <r>     2.9268    33.2786   367.4321 </r>
       <r>     3.0971     3.9281   368.1008 </r>
       <r>     3.2673    -0.5645   368.0047 </r>
       <r>     3.4375    -0.0276   368.0000 </r>
       <r>     3.6078    -0.0001   368.0000 </r>
       <r>     3.7780    -0.0000   368.0000 </r>
       <r>     3.9483    -0.0000   368.0000 </r>
       <r>     4.1185     0.0000   368.0000 </r>
       <r>     4.2888     0.0000   368.0000 </r>
       <r>     4.4590     0.0000   368.0000 </r>
       <r>     4.6293     0.0000   368.0000 </r>
       <r>     4.7995     0.0000   368.0000 </r>
       <r>     4.9697     0.0000   368.0000 </r>
       <r>     5.1400     0.0000   368.0000 </r>
       <r>     5.3102     0.0000   368.0000 </r>
      </set>
     </set>
    </array>
   </total>
  </dos>
 </calculation>
 <structure name="finalpos" >
  <crystal>
   <varray name="basis" >
    <v>       8.53269958       0.00000000       0.00000000 </v>
    <v>      -0.00051933       8.49699972       0.00000000 </v>
    <v>       0.00000000       0.00000000      23.59499931 </v>
   </varray>
   <i name="volume">   1710.69280467 </i>
   <varray name="rec_basis" >
    <v>       0.11719620       0.00000716       0.00000000 </v>
    <v>       0.00000000       0.11768860       0.00000000 </v>
    <v>       0.00000000       0.00000000       0.04238186 </v>
   </varray>
  </crystal>
  <varray name="positions" >
   <v>       0.00086000       0.99993000       0.24271000 </v>
   <v>       0.16589957       0.16471079       0.30323101 </v>
   <v>       0.50544035       0.16970429       0.30604542 </v>
   <v>       0.66822000       0.00107000       0.24272000 </v>
   <v>       0.83417243       0.16743432       0.30394797 </v>
   <v>       0.00044000       0.33497000       0.24240000 </v>
   <v>       0.16685214       0.50206384       0.30400934 </v>
   <v>       0.33469000       0.33305000       0.24267000 </v>
   <v>       0.49980869       0.49742802       0.30372178 </v>
   <v>       0.83502648       0.50420770       0.30217990 </v>
   <v>       0.16863847       0.83457814       0.30501553 </v>
   <v>       0.33342000       0.66555000       0.24261000 </v>
   <v>       0.83648674       0.83311478       0.30363590 </v>
   <v>       0.00064000       0.00119000       0.00199000 </v>
   <v>      -0.00362163       0.00459563       0.36160297 </v>
   <v>       0.16843000       0.16962000       0.06269000 </v>
   <v>       0.33460000       0.00297000       0.00254000 </v>
   <v>       0.33708720       0.00653675       0.36195768 </v>
   <v>       0.50463000       0.16850000       0.06120000 </v>
   <v>       0.83272000       0.16670000       0.06193000 </v>
   <v>       0.00004000       0.33467000       0.00213000 </v>
   <v>       0.99857738       0.33186373       0.36006574 </v>
   <v>       0.16757000       0.49895000       0.06268000 </v>
   <v>       0.50099000       0.49896000       0.06206000 </v>
   <v>       0.83393000       0.50234000       0.06235000 </v>
   <v>       0.00121000       0.66785000       0.00188000 </v>
   <v>      -0.00213375       0.66609651       0.36044313 </v>
   <v>       0.16792000       0.83462000       0.06228000 </v>
   <v>       0.33437000       0.66664000       0.00225000 </v>
   <v>       0.34005745       0.66315868       0.36175193 </v>
   <v>       0.50152000       0.83563000       0.06217000 </v>
   <v>       0.66753000       0.66705000       0.00175000 </v>
   <v>       0.66339310       0.66459610       0.36034303 </v>
   <v>       0.83293000       0.83584000       0.06235000 </v>
   <v>       0.00121000       0.00098000       0.12225000 </v>
   <v>       0.16700000       0.16811000       0.18239000 </v>
   <v>       0.33470000       0.00227000       0.12192000 </v>
   <v>       0.50174000       0.16716000       0.18263000 </v>
   <v>       0.83421000       0.16639000       0.18283000 </v>
   <v>       0.16964000       0.49868000       0.18209000 </v>
   <v>       0.50219000       0.50081000       0.18317000 </v>
   <v>       0.66741000       0.33395000       0.12233000 </v>
   <v>       0.83134000       0.50253000       0.18283000 </v>
   <v>       0.00132000       0.66795000       0.12253000 </v>
   <v>       0.16898000       0.83509000       0.18243000 </v>
   <v>       0.33446000       0.66703000       0.12223000 </v>
   <v>       0.49971000       0.83538000       0.18278000 </v>
   <v>       0.66698000       0.66840000       0.12259000 </v>
   <v>       0.83488000       0.83403000       0.18294000 </v>
   <v>       0.33558000       0.99863000       0.24353000 </v>
   <v>       0.66801000       0.33262000       0.24229000 </v>
   <v>       0.00448000       0.66739000       0.24217000 </v>
   <v>       0.49661475       0.83343711       0.30116455 </v>
   <v>       0.66521000       0.67351000       0.24327000 </v>
   <v>       0.66620000       0.99680000       0.00000000 </v>
   <v>       0.66737432       0.98761411       0.36400103 </v>
   <v>       0.33213000       0.33386000       0.00135000 </v>
   <v>       0.32276710       0.33243764       0.36515367 </v>
   <v>       0.67040000       0.33673000       0.00321000 </v>
   <v>       0.67730008       0.34335155       0.36693267 </v>
   <v>       0.66728000       0.99998000       0.12246000 </v>
   <v>       0.99806000       0.33495000       0.12235000 </v>
   <v>       0.33675000       0.33238000       0.12261000 </v>
  </varray>
  <varray name="selective"  type="logical" >
   <v type="logical" >  F  F  F </v>
   <v type="logical" >  T  T  T </v>
   <v type="logical" >  T  T  T </v>
   <v type="logical" >  F  F  F </v>
   <v type="logical" >  T  T  T </v>
   <v type="logical" >  F  F  F </v>
   <v type="logical" >  T  T  T </v>
   <v type="logical" >  F  F  F </v>
   <v type="logical" >  T  T  T </v>
   <v type="logical" >  T  T  T </v>
   <v type="logical" >  T  T  T </v>
   <v type="logical" >  F  F  F </v>
   <v type="logical" >  T  T  T </v>
   <v type="logical" >  F  F  F </v>
   <v type="logical" >  T  T  T </v>
   <v type="logical" >  F  F  F </v>
   <v type="logical" >  F  F  F </v>
   <v type="logical" >  T  T  T </v>
   <v type="logical" >  F  F  F </v>
   <v type="logical" >  F  F  F </v>
   <v type="logical" >  F  F  F </v>
   <v type="logical" >  T  T  T </v>
   <v type="logical" >  F  F  F </v>
   <v type="logical" >  F  F  F </v>
   <v type="logical" >  F  F  F </v>
   <v type="logical" >  F  F  F </v>
   <v type="logical" >  T  T  T </v>
   <v type="logical" >  F  F  F </v>
   <v type="logical" >  F  F  F </v>
   <v type="logical" >  T  T  T </v>
   <v type="logical" >  F  F  F </v>
   <v type="logical" >  F  F  F </v>
   <v type="logical" >  T  T  T </v>
   <v type="logical" >  F  F  F </v>
   <v type="logical" >  F  F  F </v>
   <v type="logical" >  F  F  F </v>
   <v type="logical" >  F  F  F </v>
   <v type="logical" >  F  F  F </v>
   <v type="logical" >  F  F  F </v>
   <v type="logical" >  F  F  F </v>
   <v type="logical" >  F  F  F </v>
   <v type="logical" >  F  F  F </v>
   <v type="logical" >  F  F  F </v>
   <v type="logical" >  F  F  F </v>
   <v type="logical" >  F  F  F </v>
   <v type="logical" >  F  F  F </v>
   <v type="logical" >  F  F  F </v>
   <v type="logical" >  F  F  F </v>
   <v type="logical" >  F  F  F </v>
   <v type="logical" >  F  F  F </v>
   <v type="logical" >  F  F  F </v>
   <v type="logical" >  F  F  F </v>
   <v type="logical" >  T  T  T </v>
   <v type="logical" >  F  F  F </v>
   <v type="logical" >  F  F  F </v>
   <v type="logical" >  T  T  T </v>
   <v type="logical" >  F  F  F </v>
   <v type="logical" >  T  T  T </v>
   <v type="logical" >  F  F  F </v>
   <v type="logical" >  T  T  T </v>
   <v type="logical" >  F  F  F </v>
   <v type="logical" >  F  F  F </v>
   <v type="logical" >  F  F  F </v>
  </varray>
  <nose>
   <v>      -3.00000000       0.00000000       0.00010000       0.00010000 </v>
  </nose>
 </structure>
</modeling>
