ni3al                                   
           1
     8.532700    0.000000    0.000000
    -0.000519    8.497000    0.000000
     0.000000    0.000000   23.594999
   Fe   Cr
    49    14
Direct configuration=     1
   0.00086000  0.99993000  0.24271000
   0.16645303  0.16679269  0.30354591
   0.50234708  0.16778972  0.30364080
   0.66822000  0.00107000  0.24272000
   0.83315016  0.16811597  0.30355775
   0.00044000  0.33497000  0.24240000
   0.16748000  0.50058605  0.30394903
   0.33469000  0.33305000  0.24267000
   0.50136879  0.49952602  0.30346556
   0.83313861  0.50196246  0.30308510
   0.16821137  0.83313439  0.30394853
   0.33342000  0.66555000  0.24261000
   0.83472974  0.83254651  0.30306878
   0.00064000  0.00119000  0.00199000
   0.00006150  0.99986505  0.36307309
   0.16843000  0.16962000  0.06269000
   0.33460000  0.00297000  0.00254000
   0.33373064  0.00109129  0.36207823
   0.50463000  0.16850000  0.06120000
   0.83272000  0.16670000  0.06193000
   0.00004000  0.33467000  0.00213000
   0.99918307  0.33459570  0.36184619
   0.16757000  0.49895000  0.06268000
   0.50099000  0.49896000  0.06206000
   0.83393000  0.50234000  0.06235000
   0.00121000  0.66785000  0.00188000
   0.00063789  0.66646060  0.36216559
   0.16792000  0.83462000  0.06228000
   0.33437000  0.66664000  0.00225000
   0.33448885  0.66646161  0.36349570
   0.50152000  0.83563000  0.06217000
   0.66753000  0.66705000  0.00175000
   0.66692689  0.66551657  0.36127991
   0.83293000  0.83584000  0.06235000
   0.00121000  0.00098000  0.12225000
   0.16700000  0.16811000  0.18239000
   0.33470000  0.00227000  0.12192000
   0.50174000  0.16716000  0.18263000
   0.83421000  0.16639000  0.18283000
   0.16964000  0.49868000  0.18209000
   0.50219000  0.50081000  0.18317000
   0.66741000  0.33395000  0.12233000
   0.83134000  0.50253000  0.18283000
   0.00132000  0.66795000  0.12253000
   0.16898000  0.83509000  0.18243000
   0.33446000  0.66703000  0.12223000
   0.49971000  0.83538000  0.18278000
   0.66698000  0.66840000  0.12259000
   0.83488000  0.83403000  0.18294000
   0.33558000  0.99863000  0.24353000
   0.66801000  0.33262000  0.24229000
   0.00448000  0.66739000  0.24217000
   0.49986064  0.83297078  0.30354110
   0.66521000  0.67351000  0.24327000
   0.66620000  0.99680000  0.00000000
   0.66580038  0.99467628  0.35986255
   0.33213000  0.33386000  0.00135000
   0.33123520  0.33445983  0.36153393
   0.67040000  0.33673000  0.00321000
   0.67059717  0.33712635  0.36285022
   0.66728000  0.99998000  0.12246000
   0.99806000  0.33495000  0.12235000
   0.33675000  0.33238000  0.12261000
Direct configuration=     2
   0.00086000  0.99993000  0.24271000
   0.16529961  0.16567231  0.30376534
   0.50199291  0.16729204  0.30400100
   0.66822000  0.00107000  0.24272000
   0.83553279  0.16780736  0.30386528
   0.00044000  0.33497000  0.24240000
   0.16658412  0.50157327  0.30417756
   0.33469000  0.33305000  0.24267000
   0.50080327  0.50069567  0.30363919
   0.83460199  0.50313789  0.30301485
   0.16801390  0.83344399  0.30433541
   0.33342000  0.66555000  0.24261000
   0.83608446  0.83221292  0.30352982
   0.00064000  0.00119000  0.00199000
  -0.00065072  0.00064203  0.36231950
   0.16843000  0.16962000  0.06269000
   0.33460000  0.00297000  0.00254000
   0.33421074  0.00225932  0.36186381
   0.50463000  0.16850000  0.06120000
   0.83272000  0.16670000  0.06193000
   0.00004000  0.33467000  0.00213000
   0.99891307  0.33395537  0.36125213
   0.16757000  0.49895000  0.06268000
   0.50099000  0.49896000  0.06206000
   0.83393000  0.50234000  0.06235000
   0.00121000  0.66785000  0.00188000
   0.00023566  0.66629519  0.36156788
   0.16792000  0.83462000  0.06228000
   0.33437000  0.66664000  0.00225000
   0.33518205  0.66580713  0.36293035
   0.50152000  0.83563000  0.06217000
   0.66753000  0.66705000  0.00175000
   0.66669089  0.66507364  0.36114411
   0.83293000  0.83584000  0.06235000
   0.00121000  0.00098000  0.12225000
   0.16700000  0.16811000  0.18239000
   0.33470000  0.00227000  0.12192000
   0.50174000  0.16716000  0.18263000
   0.83421000  0.16639000  0.18283000
   0.16964000  0.49868000  0.18209000
   0.50219000  0.50081000  0.18317000
   0.66741000  0.33395000  0.12233000
   0.83134000  0.50253000  0.18283000
   0.00132000  0.66795000  0.12253000
   0.16898000  0.83509000  0.18243000
   0.33446000  0.66703000  0.12223000
   0.49971000  0.83538000  0.18278000
   0.66698000  0.66840000  0.12259000
   0.83488000  0.83403000  0.18294000
   0.33558000  0.99863000  0.24353000
   0.66801000  0.33262000  0.24229000
   0.00448000  0.66739000  0.24217000
   0.49825326  0.83223594  0.30286187
   0.66521000  0.67351000  0.24327000
   0.66620000  0.99680000  0.00000000
   0.66608456  0.99352019  0.36048010
   0.33213000  0.33386000  0.00135000
   0.32961492  0.33404383  0.36217390
   0.67040000  0.33673000  0.00321000
   0.67181689  0.33800746  0.36365847
   0.66728000  0.99998000  0.12246000
   0.99806000  0.33495000  0.12235000
   0.33675000  0.33238000  0.12261000
Direct configuration=     3
   0.00086000  0.99993000  0.24271000
   0.16407630  0.16448404  0.30399806
   0.50161727  0.16676421  0.30438303
   0.66822000  0.00107000  0.24272000
   0.83805978  0.16748005  0.30419144
   0.00044000  0.33497000  0.24240000
   0.16563397  0.50262031  0.30441994
   0.33469000  0.33305000  0.24267000
   0.50020349  0.50193620  0.30382334
   0.83615405  0.50438455  0.30294034
   0.16780448  0.83377235  0.30474573
   0.33342000  0.66555000  0.24261000
   0.83752126  0.83185911  0.30401880
   0.00064000  0.00119000  0.00199000
  -0.00140611  0.00146609  0.36152025
   0.16843000  0.16962000  0.06269000
   0.33460000  0.00297000  0.00254000
   0.33471993  0.00349813  0.36163640
   0.50463000  0.16850000  0.06120000
   0.83272000  0.16670000  0.06193000
   0.00004000  0.33467000  0.00213000
   0.99862671  0.33327624  0.36062206
   0.16757000  0.49895000  0.06268000
   0.50099000  0.49896000  0.06206000
   0.83393000  0.50234000  0.06235000
   0.00121000  0.66785000  0.00188000
  -0.00019094  0.66611977  0.36093394
   0.16792000  0.83462000  0.06228000
   0.33437000  0.66664000  0.00225000
   0.33591726  0.66511299  0.36233075
   0.50152000  0.83563000  0.06217000
   0.66753000  0.66705000  0.00175000
   0.66644060  0.66460387  0.36100009
   0.83293000  0.83584000  0.06235000
   0.00121000  0.00098000  0.12225000
   0.16700000  0.16811000  0.18239000
   0.33470000  0.00227000  0.12192000
   0.50174000  0.16716000  0.18263000
   0.83421000  0.16639000  0.18283000
   0.16964000  0.49868000  0.18209000
   0.50219000  0.50081000  0.18317000
   0.66741000  0.33395000  0.12233000
   0.83134000  0.50253000  0.18283000
   0.00132000  0.66795000  0.12253000
   0.16898000  0.83509000  0.18243000
   0.33446000  0.66703000  0.12223000
   0.49971000  0.83538000  0.18278000
   0.66698000  0.66840000  0.12259000
   0.83488000  0.83403000  0.18294000
   0.33558000  0.99863000  0.24353000
   0.66801000  0.33262000  0.24229000
   0.00448000  0.66739000  0.24217000
   0.49654847  0.83145658  0.30214148
   0.66521000  0.67351000  0.24327000
   0.66620000  0.99680000  0.00000000
   0.66638597  0.99229405  0.36113507
   0.33213000  0.33386000  0.00135000
   0.32789646  0.33360263  0.36285266
   0.67040000  0.33673000  0.00321000
   0.67311051  0.33894197  0.36451570
   0.66728000  0.99998000  0.12246000
   0.99806000  0.33495000  0.12235000
   0.33675000  0.33238000  0.12261000
Direct configuration=     4
   0.00086000  0.99993000  0.24271000
   0.16471532  0.16460973  0.30378155
   0.50222694  0.16729448  0.30473551
   0.66822000  0.00107000  0.24272000
   0.83729780  0.16750537  0.30417387
   0.00044000  0.33497000  0.24240000
   0.16602004  0.50241621  0.30426956
   0.33469000  0.33305000  0.24267000
   0.50009886  0.50099662  0.30393472
   0.83596756  0.50447389  0.30274106
   0.16811779  0.83397726  0.30465437
   0.33342000  0.66555000  0.24261000
   0.83717457  0.83215258  0.30394370
   0.00064000  0.00119000  0.00199000
  -0.00195575  0.00194438  0.36153879
   0.16843000  0.16962000  0.06269000
   0.33460000  0.00297000  0.00254000
   0.33524284  0.00433930  0.36164950
   0.50463000  0.16850000  0.06120000
   0.83272000  0.16670000  0.06193000
   0.00004000  0.33467000  0.00213000
   0.99854054  0.33297988  0.36051856
   0.16757000  0.49895000  0.06268000
   0.50099000  0.49896000  0.06206000
   0.83393000  0.50234000  0.06235000
   0.00121000  0.66785000  0.00188000
  -0.00056190  0.66607832  0.36097037
   0.16792000  0.83462000  0.06228000
   0.33437000  0.66664000  0.00225000
   0.33658662  0.66460488  0.36211549
   0.50152000  0.83563000  0.06217000
   0.66753000  0.66705000  0.00175000
   0.66599921  0.66447118  0.36085532
   0.83293000  0.83584000  0.06235000
   0.00121000  0.00098000  0.12225000
   0.16700000  0.16811000  0.18239000
   0.33470000  0.00227000  0.12192000
   0.50174000  0.16716000  0.18263000
   0.83421000  0.16639000  0.18283000
   0.16964000  0.49868000  0.18209000
   0.50219000  0.50081000  0.18317000
   0.66741000  0.33395000  0.12233000
   0.83134000  0.50253000  0.18283000
   0.00132000  0.66795000  0.12253000
   0.16898000  0.83509000  0.18243000
   0.33446000  0.66703000  0.12223000
   0.49971000  0.83538000  0.18278000
   0.66698000  0.66840000  0.12259000
   0.83488000  0.83403000  0.18294000
   0.33558000  0.99863000  0.24353000
   0.66801000  0.33262000  0.24229000
   0.00448000  0.66739000  0.24217000
   0.49648790  0.83180830  0.30173313
   0.66521000  0.67351000  0.24327000
   0.66620000  0.99680000  0.00000000
   0.66658574  0.99121694  0.36159288
   0.33213000  0.33386000  0.00135000
   0.32649195  0.33330966  0.36326678
   0.67040000  0.33673000  0.00321000
   0.67412448  0.33979855  0.36491466
   0.66728000  0.99998000  0.12246000
   0.99806000  0.33495000  0.12235000
   0.33675000  0.33238000  0.12261000
Direct configuration=     5
   0.00086000  0.99993000  0.24271000
   0.16663238  0.16498679  0.30313200
   0.50405595  0.16888530  0.30579294
   0.66822000  0.00107000  0.24272000
   0.83501186  0.16758132  0.30412115
   0.00044000  0.33497000  0.24240000
   0.16717828  0.50180392  0.30381841
   0.33469000  0.33305000  0.24267000
   0.49978497  0.49817790  0.30426888
   0.83540808  0.50474192  0.30214321
   0.16905773  0.83459198  0.30438027
   0.33342000  0.66555000  0.24261000
   0.83613451  0.83303301  0.30371842
   0.00064000  0.00119000  0.00199000
  -0.00360467  0.00337925  0.36159440
   0.16843000  0.16962000  0.06269000
   0.33460000  0.00297000  0.00254000
   0.33681155  0.00686280  0.36168879
   0.50463000  0.16850000  0.06120000
   0.83272000  0.16670000  0.06193000
   0.00004000  0.33467000  0.00213000
   0.99828203  0.33209082  0.36020803
   0.16757000  0.49895000  0.06268000
   0.50099000  0.49896000  0.06206000
   0.83393000  0.50234000  0.06235000
   0.00121000  0.66785000  0.00188000
  -0.00167477  0.66595399  0.36107968
   0.16792000  0.83462000  0.06228000
   0.33437000  0.66664000  0.00225000
   0.33859469  0.66308055  0.36146970
   0.50152000  0.83563000  0.06217000
   0.66753000  0.66705000  0.00175000
   0.66467504  0.66407311  0.36042100
   0.83293000  0.83584000  0.06235000
   0.00121000  0.00098000  0.12225000
   0.16700000  0.16811000  0.18239000
   0.33470000  0.00227000  0.12192000
   0.50174000  0.16716000  0.18263000
   0.83421000  0.16639000  0.18283000
   0.16964000  0.49868000  0.18209000
   0.50219000  0.50081000  0.18317000
   0.66741000  0.33395000  0.12233000
   0.83134000  0.50253000  0.18283000
   0.00132000  0.66795000  0.12253000
   0.16898000  0.83509000  0.18243000
   0.33446000  0.66703000  0.12223000
   0.49971000  0.83538000  0.18278000
   0.66698000  0.66840000  0.12259000
   0.83488000  0.83403000  0.18294000
   0.33558000  0.99863000  0.24353000
   0.66801000  0.33262000  0.24229000
   0.00448000  0.66739000  0.24217000
   0.49630621  0.83286348  0.30050806
   0.66521000  0.67351000  0.24327000
   0.66620000  0.99680000  0.00000000
   0.66718507  0.98798559  0.36296632
   0.33213000  0.33386000  0.00135000
   0.32227841  0.33243074  0.36450913
   0.67040000  0.33673000  0.00321000
   0.67716639  0.34236831  0.36611152
   0.66728000  0.99998000  0.12246000
   0.99806000  0.33495000  0.12235000
   0.33675000  0.33238000  0.12261000
Direct configuration=     6
   0.00086000  0.99993000  0.24271000
   0.16644757  0.16495044  0.30319462
   0.50387963  0.16873194  0.30569100
   0.66822000  0.00107000  0.24272000
   0.83523223  0.16757400  0.30412624
   0.00044000  0.33497000  0.24240000
   0.16706662  0.50186294  0.30386190
   0.33469000  0.33305000  0.24267000
   0.49981523  0.49844963  0.30423666
   0.83546202  0.50471608  0.30220084
   0.16896711  0.83453272  0.30440670
   0.33342000  0.66555000  0.24261000
   0.83623477  0.83294813  0.30374014
   0.00064000  0.00119000  0.00199000
  -0.00344571  0.00324092  0.36158904
   0.16843000  0.16962000  0.06269000
   0.33460000  0.00297000  0.00254000
   0.33666032  0.00661952  0.36168500
   0.50463000  0.16850000  0.06120000
   0.83272000  0.16670000  0.06193000
   0.00004000  0.33467000  0.00213000
   0.99830695  0.33217653  0.36023797
   0.16757000  0.49895000  0.06268000
   0.50099000  0.49896000  0.06206000
   0.83393000  0.50234000  0.06235000
   0.00121000  0.66785000  0.00188000
  -0.00156748  0.66596598  0.36106914
   0.16792000  0.83462000  0.06228000
   0.33437000  0.66664000  0.00225000
   0.33840111  0.66322750  0.36153196
   0.50152000  0.83563000  0.06217000
   0.66753000  0.66705000  0.00175000
   0.66480270  0.66411148  0.36046287
   0.83293000  0.83584000  0.06235000
   0.00121000  0.00098000  0.12225000
   0.16700000  0.16811000  0.18239000
   0.33470000  0.00227000  0.12192000
   0.50174000  0.16716000  0.18263000
   0.83421000  0.16639000  0.18283000
   0.16964000  0.49868000  0.18209000
   0.50219000  0.50081000  0.18317000
   0.66741000  0.33395000  0.12233000
   0.83134000  0.50253000  0.18283000
   0.00132000  0.66795000  0.12253000
   0.16898000  0.83509000  0.18243000
   0.33446000  0.66703000  0.12223000
   0.49971000  0.83538000  0.18278000
   0.66698000  0.66840000  0.12259000
   0.83488000  0.83403000  0.18294000
   0.33558000  0.99863000  0.24353000
   0.66801000  0.33262000  0.24229000
   0.00448000  0.66739000  0.24217000
   0.49632373  0.83276176  0.30062616
   0.66521000  0.67351000  0.24327000
   0.66620000  0.99680000  0.00000000
   0.66712729  0.98829711  0.36283392
   0.33213000  0.33386000  0.00135000
   0.32268461  0.33251547  0.36438936
   0.67040000  0.33673000  0.00321000
   0.67687314  0.34212058  0.36599614
   0.66728000  0.99998000  0.12246000
   0.99806000  0.33495000  0.12235000
   0.33675000  0.33238000  0.12261000
Direct configuration=     7
   0.00086000  0.99993000  0.24271000
   0.16580779  0.16466989  0.30311147
   0.50495698  0.16948276  0.30590692
   0.66822000  0.00107000  0.24272000
   0.83454758  0.16751373  0.30398468
   0.00044000  0.33497000  0.24240000
   0.16667956  0.50211736  0.30388647
   0.33469000  0.33305000  0.24267000
   0.49986211  0.49740799  0.30403121
   0.83548393  0.50472743  0.30216251
   0.16840931  0.83449452  0.30472311
   0.33342000  0.66555000  0.24261000
   0.83664905  0.83288635  0.30363968
   0.00064000  0.00119000  0.00199000
  -0.00353778  0.00381275  0.36152180
   0.16843000  0.16962000  0.06269000
   0.33460000  0.00297000  0.00254000
   0.33709306  0.00679926  0.36179268
   0.50463000  0.16850000  0.06120000
   0.83272000  0.16670000  0.06193000
   0.00004000  0.33467000  0.00213000
   0.99850945  0.33198968  0.36006204
   0.16757000  0.49895000  0.06268000
   0.50099000  0.49896000  0.06206000
   0.83393000  0.50234000  0.06235000
   0.00121000  0.66785000  0.00188000
  -0.00178636  0.66604647  0.36067786
   0.16792000  0.83462000  0.06228000
   0.33437000  0.66664000  0.00225000
   0.33907751  0.66311822  0.36150253
   0.50152000  0.83563000  0.06217000
   0.66753000  0.66705000  0.00175000
   0.66410451  0.66433523  0.36031299
   0.83293000  0.83584000  0.06235000
   0.00121000  0.00098000  0.12225000
   0.16700000  0.16811000  0.18239000
   0.33470000  0.00227000  0.12192000
   0.50174000  0.16716000  0.18263000
   0.83421000  0.16639000  0.18283000
   0.16964000  0.49868000  0.18209000
   0.50219000  0.50081000  0.18317000
   0.66741000  0.33395000  0.12233000
   0.83134000  0.50253000  0.18283000
   0.00132000  0.66795000  0.12253000
   0.16898000  0.83509000  0.18243000
   0.33446000  0.66703000  0.12223000
   0.49971000  0.83538000  0.18278000
   0.66698000  0.66840000  0.12259000
   0.83488000  0.83403000  0.18294000
   0.33558000  0.99863000  0.24353000
   0.66801000  0.33262000  0.24229000
   0.00448000  0.66739000  0.24217000
   0.49668714  0.83305805  0.30094561
   0.66521000  0.67351000  0.24327000
   0.66620000  0.99680000  0.00000000
   0.66705679  0.98760879  0.36339626
   0.33213000  0.33386000  0.00135000
   0.32220443  0.33243254  0.36489415
   0.67040000  0.33673000  0.00321000
   0.67732947  0.34279748  0.36647031
   0.66728000  0.99998000  0.12246000
   0.99806000  0.33495000  0.12235000
   0.33675000  0.33238000  0.12261000
Direct configuration=     8
   0.00086000  0.99993000  0.24271000
   0.16546286  0.16451864  0.30306664
   0.50553783  0.16988757  0.30602333
   0.66822000  0.00107000  0.24272000
   0.83417845  0.16748124  0.30390835
   0.00044000  0.33497000  0.24240000
   0.16647087  0.50225453  0.30389972
   0.33469000  0.33305000  0.24267000
   0.49988740  0.49684638  0.30392045
   0.83549574  0.50473354  0.30214184
   0.16810858  0.83447393  0.30489371
   0.33342000  0.66555000  0.24261000
   0.83687241  0.83285304  0.30358552
   0.00064000  0.00119000  0.00199000
  -0.00358742  0.00412105  0.36148554
   0.16843000  0.16962000  0.06269000
   0.33460000  0.00297000  0.00254000
   0.33732637  0.00689616  0.36185073
   0.50463000  0.16850000  0.06120000
   0.83272000  0.16670000  0.06193000
   0.00004000  0.33467000  0.00213000
   0.99861862  0.33188894  0.35996718
   0.16757000  0.49895000  0.06268000
   0.50099000  0.49896000  0.06206000
   0.83393000  0.50234000  0.06235000
   0.00121000  0.66785000  0.00188000
  -0.00190436  0.66608987  0.36046690
   0.16792000  0.83462000  0.06228000
   0.33437000  0.66664000  0.00225000
   0.33944219  0.66305930  0.36148666
   0.50152000  0.83563000  0.06217000
   0.66753000  0.66705000  0.00175000
   0.66372808  0.66445586  0.36023219
   0.83293000  0.83584000  0.06235000
   0.00121000  0.00098000  0.12225000
   0.16700000  0.16811000  0.18239000
   0.33470000  0.00227000  0.12192000
   0.50174000  0.16716000  0.18263000
   0.83421000  0.16639000  0.18283000
   0.16964000  0.49868000  0.18209000
   0.50219000  0.50081000  0.18317000
   0.66741000  0.33395000  0.12233000
   0.83134000  0.50253000  0.18283000
   0.00132000  0.66795000  0.12253000
   0.16898000  0.83509000  0.18243000
   0.33446000  0.66703000  0.12223000
   0.49971000  0.83538000  0.18278000
   0.66698000  0.66840000  0.12259000
   0.83488000  0.83403000  0.18294000
   0.33558000  0.99863000  0.24353000
   0.66801000  0.33262000  0.24229000
   0.00448000  0.66739000  0.24217000
   0.49688307  0.83321779  0.30111785
   0.66521000  0.67351000  0.24327000
   0.66620000  0.99680000  0.00000000
   0.66701877  0.98723769  0.36369944
   0.33213000  0.33386000  0.00135000
   0.32194554  0.33238783  0.36516630
   0.67040000  0.33673000  0.00321000
   0.67757550  0.34316243  0.36672596
   0.66728000  0.99998000  0.12246000
   0.99806000  0.33495000  0.12235000
   0.33675000  0.33238000  0.12261000
Direct configuration=     9
   0.00086000  0.99993000  0.24271000
   0.16554176  0.16455324  0.30307689
   0.50540496  0.16979496  0.30599670
   0.66822000  0.00107000  0.24272000
   0.83426289  0.16748867  0.30392581
   0.00044000  0.33497000  0.24240000
   0.16651861  0.50222315  0.30389669
   0.33469000  0.33305000  0.24267000
   0.49988161  0.49697486  0.30394579
   0.83549304  0.50473214  0.30214657
   0.16817737  0.83447864  0.30485468
   0.33342000  0.66555000  0.24261000
   0.83682132  0.83286066  0.30359791
   0.00064000  0.00119000  0.00199000
  -0.00357606  0.00405052  0.36149383
   0.16843000  0.16962000  0.06269000
   0.33460000  0.00297000  0.00254000
   0.33727300  0.00687400  0.36183745
   0.50463000  0.16850000  0.06120000
   0.83272000  0.16670000  0.06193000
   0.00004000  0.33467000  0.00213000
   0.99859365  0.33191198  0.35998888
   0.16757000  0.49895000  0.06268000
   0.50099000  0.49896000  0.06206000
   0.83393000  0.50234000  0.06235000
   0.00121000  0.66785000  0.00188000
  -0.00187737  0.66607994  0.36051516
   0.16792000  0.83462000  0.06228000
   0.33437000  0.66664000  0.00225000
   0.33935877  0.66307278  0.36149029
   0.50152000  0.83563000  0.06217000
   0.66753000  0.66705000  0.00175000
   0.66381419  0.66442827  0.36025067
   0.83293000  0.83584000  0.06235000
   0.00121000  0.00098000  0.12225000
   0.16700000  0.16811000  0.18239000
   0.33470000  0.00227000  0.12192000
   0.50174000  0.16716000  0.18263000
   0.83421000  0.16639000  0.18283000
   0.16964000  0.49868000  0.18209000
   0.50219000  0.50081000  0.18317000
   0.66741000  0.33395000  0.12233000
   0.83134000  0.50253000  0.18283000
   0.00132000  0.66795000  0.12253000
   0.16898000  0.83509000  0.18243000
   0.33446000  0.66703000  0.12223000
   0.49971000  0.83538000  0.18278000
   0.66698000  0.66840000  0.12259000
   0.83488000  0.83403000  0.18294000
   0.33558000  0.99863000  0.24353000
   0.66801000  0.33262000  0.24229000
   0.00448000  0.66739000  0.24217000
   0.49683825  0.83318124  0.30107845
   0.66521000  0.67351000  0.24327000
   0.66620000  0.99680000  0.00000000
   0.66702747  0.98732258  0.36363008
   0.33213000  0.33386000  0.00135000
   0.32200476  0.33239806  0.36510404
   0.67040000  0.33673000  0.00321000
   0.67751922  0.34307894  0.36666748
   0.66728000  0.99998000  0.12246000
   0.99806000  0.33495000  0.12235000
   0.33675000  0.33238000  0.12261000
Direct configuration=    10
   0.00086000  0.99993000  0.24271000
   0.16560858  0.16458253  0.30308558
   0.50529245  0.16971655  0.30597415
   0.66822000  0.00107000  0.24272000
   0.83433439  0.16749497  0.30394060
   0.00044000  0.33497000  0.24240000
   0.16655903  0.50219658  0.30389412
   0.33469000  0.33305000  0.24267000
   0.49987672  0.49708363  0.30396724
   0.83549075  0.50473096  0.30215057
   0.16823562  0.83448263  0.30482164
   0.33342000  0.66555000  0.24261000
   0.83677805  0.83286711  0.30360840
   0.00064000  0.00119000  0.00199000
  -0.00356645  0.00399081  0.36150086
   0.16843000  0.16962000  0.06269000
   0.33460000  0.00297000  0.00254000
   0.33722781  0.00685523  0.36182620
   0.50463000  0.16850000  0.06120000
   0.83272000  0.16670000  0.06193000
   0.00004000  0.33467000  0.00213000
   0.99857250  0.33193150  0.36000725
   0.16757000  0.49895000  0.06268000
   0.50099000  0.49896000  0.06206000
   0.83393000  0.50234000  0.06235000
   0.00121000  0.66785000  0.00188000
  -0.00185451  0.66607153  0.36055602
   0.16792000  0.83462000  0.06228000
   0.33437000  0.66664000  0.00225000
   0.33928813  0.66308419  0.36149336
   0.50152000  0.83563000  0.06217000
   0.66753000  0.66705000  0.00175000
   0.66388711  0.66440490  0.36026632
   0.83293000  0.83584000  0.06235000
   0.00121000  0.00098000  0.12225000
   0.16700000  0.16811000  0.18239000
   0.33470000  0.00227000  0.12192000
   0.50174000  0.16716000  0.18263000
   0.83421000  0.16639000  0.18283000
   0.16964000  0.49868000  0.18209000
   0.50219000  0.50081000  0.18317000
   0.66741000  0.33395000  0.12233000
   0.83134000  0.50253000  0.18283000
   0.00132000  0.66795000  0.12253000
   0.16898000  0.83509000  0.18243000
   0.33446000  0.66703000  0.12223000
   0.49971000  0.83538000  0.18278000
   0.66698000  0.66840000  0.12259000
   0.83488000  0.83403000  0.18294000
   0.33558000  0.99863000  0.24353000
   0.66801000  0.33262000  0.24229000
   0.00448000  0.66739000  0.24217000
   0.49680030  0.83315030  0.30104509
   0.66521000  0.67351000  0.24327000
   0.66620000  0.99680000  0.00000000
   0.66703483  0.98739446  0.36357136
   0.33213000  0.33386000  0.00135000
   0.32205491  0.33240672  0.36505133
   0.67040000  0.33673000  0.00321000
   0.67747157  0.34300825  0.36661796
   0.66728000  0.99998000  0.12246000
   0.99806000  0.33495000  0.12235000
   0.33675000  0.33238000  0.12261000
Direct configuration=    11
   0.00086000  0.99993000  0.24271000
   0.16576604  0.16464973  0.30317291
   0.50535549  0.16971337  0.30599798
   0.66822000  0.00107000  0.24272000
   0.83426153  0.16742682  0.30393077
   0.00044000  0.33497000  0.24240000
   0.16675116  0.50208385  0.30392401
   0.33469000  0.33305000  0.24267000
   0.49978919  0.49727454  0.30381255
   0.83522194  0.50438390  0.30215148
   0.16859897  0.83454986  0.30491917
   0.33342000  0.66555000  0.24261000
   0.83658391  0.83306257  0.30359125
   0.00064000  0.00119000  0.00199000
  -0.00361068  0.00428109  0.36154455
   0.16843000  0.16962000  0.06269000
   0.33460000  0.00297000  0.00254000
   0.33715866  0.00671709  0.36185855
   0.50463000  0.16850000  0.06120000
   0.83272000  0.16670000  0.06193000
   0.00004000  0.33467000  0.00213000
   0.99858049  0.33188600  0.36001761
   0.16757000  0.49895000  0.06268000
   0.50099000  0.49896000  0.06206000
   0.83393000  0.50234000  0.06235000
   0.00121000  0.66785000  0.00188000
  -0.00194866  0.66608611  0.36053827
   0.16792000  0.83462000  0.06228000
   0.33437000  0.66664000  0.00225000
   0.33959400  0.66314773  0.36159720
   0.50152000  0.83563000  0.06217000
   0.66753000  0.66705000  0.00175000
   0.66366270  0.66449890  0.36029836
   0.83293000  0.83584000  0.06235000
   0.00121000  0.00098000  0.12225000
   0.16700000  0.16811000  0.18239000
   0.33470000  0.00227000  0.12192000
   0.50174000  0.16716000  0.18263000
   0.83421000  0.16639000  0.18283000
   0.16964000  0.49868000  0.18209000
   0.50219000  0.50081000  0.18317000
   0.66741000  0.33395000  0.12233000
   0.83134000  0.50253000  0.18283000
   0.00132000  0.66795000  0.12253000
   0.16898000  0.83509000  0.18243000
   0.33446000  0.66703000  0.12223000
   0.49971000  0.83538000  0.18278000
   0.66698000  0.66840000  0.12259000
   0.83488000  0.83403000  0.18294000
   0.33558000  0.99863000  0.24353000
   0.66801000  0.33262000  0.24229000
   0.00448000  0.66739000  0.24217000
   0.49660997  0.83322737  0.30115757
   0.66521000  0.67351000  0.24327000
   0.66620000  0.99680000  0.00000000
   0.66717631  0.98746567  0.36376430
   0.33213000  0.33386000  0.00135000
   0.32230774  0.33238895  0.36511445
   0.67040000  0.33673000  0.00321000
   0.67743654  0.34315104  0.36677856
   0.66728000  0.99998000  0.12246000
   0.99806000  0.33495000  0.12235000
   0.33675000  0.33238000  0.12261000
Direct configuration=    12
   0.00086000  0.99993000  0.24271000
   0.16596792  0.16473588  0.30328489
   0.50543631  0.16970928  0.30602853
   0.66822000  0.00107000  0.24272000
   0.83416812  0.16733946  0.30391818
   0.00044000  0.33497000  0.24240000
   0.16699749  0.50193932  0.30396233
   0.33469000  0.33305000  0.24267000
   0.49967697  0.49751930  0.30361423
   0.83487729  0.50393893  0.30215264
   0.16906481  0.83463606  0.30504422
   0.33342000  0.66555000  0.24261000
   0.83633499  0.83331317  0.30356925
   0.00064000  0.00119000  0.00199000
  -0.00366740  0.00465327  0.36160056
   0.16843000  0.16962000  0.06269000
   0.33460000  0.00297000  0.00254000
   0.33707000  0.00653999  0.36190002
   0.50463000  0.16850000  0.06120000
   0.83272000  0.16670000  0.06193000
   0.00004000  0.33467000  0.00213000
   0.99859073  0.33182767  0.36003089
   0.16757000  0.49895000  0.06268000
   0.50099000  0.49896000  0.06206000
   0.83393000  0.50234000  0.06235000
   0.00121000  0.66785000  0.00188000
  -0.00206938  0.66610480  0.36051551
   0.16792000  0.83462000  0.06228000
   0.33437000  0.66664000  0.00225000
   0.33998615  0.66322919  0.36173033
   0.50152000  0.83563000  0.06217000
   0.66753000  0.66705000  0.00175000
   0.66337498  0.66461941  0.36033944
   0.83293000  0.83584000  0.06235000
   0.00121000  0.00098000  0.12225000
   0.16700000  0.16811000  0.18239000
   0.33470000  0.00227000  0.12192000
   0.50174000  0.16716000  0.18263000
   0.83421000  0.16639000  0.18283000
   0.16964000  0.49868000  0.18209000
   0.50219000  0.50081000  0.18317000
   0.66741000  0.33395000  0.12233000
   0.83134000  0.50253000  0.18283000
   0.00132000  0.66795000  0.12253000
   0.16898000  0.83509000  0.18243000
   0.33446000  0.66703000  0.12223000
   0.49971000  0.83538000  0.18278000
   0.66698000  0.66840000  0.12259000
   0.83488000  0.83403000  0.18294000
   0.33558000  0.99863000  0.24353000
   0.66801000  0.33262000  0.24229000
   0.00448000  0.66739000  0.24217000
   0.49636594  0.83332618  0.30130178
   0.66521000  0.67351000  0.24327000
   0.66620000  0.99680000  0.00000000
   0.66735769  0.98755696  0.36401168
   0.33213000  0.33386000  0.00135000
   0.32263191  0.33236616  0.36519538
   0.67040000  0.33673000  0.00321000
   0.67739163  0.34333410  0.36698446
   0.66728000  0.99998000  0.12246000
   0.99806000  0.33495000  0.12235000
   0.33675000  0.33238000  0.12261000
Direct configuration=    13
   0.00086000  0.99993000  0.24271000
   0.16590201  0.16470776  0.30324833
   0.50540992  0.16971061  0.30601856
   0.66822000  0.00107000  0.24272000
   0.83419861  0.16736798  0.30392229
   0.00044000  0.33497000  0.24240000
   0.16691707  0.50198650  0.30394982
   0.33469000  0.33305000  0.24267000
   0.49971361  0.49743940  0.30367897
   0.83498980  0.50408419  0.30215226
   0.16891274  0.83460792  0.30500340
   0.33342000  0.66555000  0.24261000
   0.83641625  0.83323136  0.30357643
   0.00064000  0.00119000  0.00199000
  -0.00364888  0.00453177  0.36158227
   0.16843000  0.16962000  0.06269000
   0.33460000  0.00297000  0.00254000
   0.33709894  0.00659780  0.36188648