   1   1   0   0
  0.1710693E+04  0.8532700E-09  0.8497000E-09  0.2359500E-08  0.5000000E-15
  1.000000000000000E-004
  CAR 
 ni3al                                   
      1.53832135    -21.98034179  301     -3.68209420      1.00000000
    -21.980  0.0000E+00  0.0000E+00  0.0000E+00  0.0000E+00
    -21.902  0.0000E+00  0.0000E+00  0.0000E+00  0.0000E+00
    -21.824  0.0000E+00  0.0000E+00  0.0000E+00  0.0000E+00
    -21.745 -0.1266E-30  0.0000E+00 -0.9928E-32  0.0000E+00
    -21.667 -0.2960E-25  0.0000E+00 -0.2320E-26  0.0000E+00
    -21.588 -0.2002E-20 -0.4194E-33 -0.1570E-21 -0.3288E-34
    -21.510 -0.3914E-16 -0.1670E-27 -0.3069E-17 -0.1310E-28
    -21.432 -0.2125E-12 -0.1927E-22 -0.1666E-13 -0.1511E-23
    -21.353 -0.3391E-09 -0.6428E-18 -0.2660E-10 -0.5039E-19
    -21.275 -0.1532E-06 -0.5979E-14 -0.1204E-07 -0.4688E-15
    -21.196 -0.1926E-04 -0.1630E-10 -0.1522E-05 -0.1279E-11
    -21.118 -0.6382E-03 -0.1259E-07 -0.5155E-04 -0.9883E-09
    -21.040 -0.4256E-02 -0.2710E-05 -0.3852E-03 -0.2134E-06
    -20.961  0.1299E-01 -0.1567E-03  0.6332E-03 -0.1250E-04
    -20.883  0.9529E-01 -0.2146E-02  0.8103E-02 -0.1807E-03
    -20.804  0.9941E-01 -0.1257E-02  0.1590E-01 -0.2793E-03
    -20.726  0.1508E-01  0.4834E-01  0.1708E-01  0.3510E-02
    -20.648 -0.4548E-02  0.1116E+00  0.1672E-01  0.1226E-01
    -20.569 -0.6912E-03  0.5911E-01  0.1667E-01  0.1689E-01
    -20.491 -0.2041E-04 -0.3067E-04  0.1667E-01  0.1689E-01
    -20.412 -0.1577E-06 -0.2615E-02  0.1667E-01  0.1668E-01
    -20.334 -0.3398E-09 -0.2011E-03  0.1667E-01  0.1667E-01
    -20.256 -0.2089E-12 -0.3586E-05  0.1667E-01  0.1667E-01
    -20.177 -0.3776E-16 -0.1728E-07  0.1667E-01  0.1667E-01
    -20.099  0.0000E+00 -0.2352E-10  0.1667E-01  0.1667E-01
    -20.020  0.0000E+00 -0.9196E-14  0.1667E-01  0.1667E-01
    -19.942  0.0000E+00  0.0000E+00  0.1667E-01  0.1667E-01
    -19.864  0.0000E+00  0.0000E+00  0.1667E-01  0.1667E-01
    -19.785  0.0000E+00  0.0000E+00  0.1667E-01  0.1667E-01
    -19.707  0.0000E+00  0.0000E+00  0.1667E-01  0.1667E-01
    -19.628  0.0000E+00  0.0000E+00  0.1667E-01  0.1667E-01
    -19.550  0.0000E+00  0.0000E+00  0.1667E-01  0.1667E-01
    -19.472  0.0000E+00  0.0000E+00  0.1667E-01  0.1667E-01
    -19.393  0.0000E+00  0.0000E+00  0.1667E-01  0.1667E-01
    -19.315  0.0000E+00  0.0000E+00  0.1667E-01  0.1667E-01
    -19.236  0.0000E+00  0.0000E+00  0.1667E-01  0.1667E-01
    -19.158  0.0000E+00  0.0000E+00  0.1667E-01  0.1667E-01
    -19.080  0.0000E+00  0.0000E+00  0.1667E-01  0.1667E-01
    -19.001  0.0000E+00  0.0000E+00  0.1667E-01  0.1667E-01
    -18.923  0.0000E+00  0.0000E+00  0.1667E-01  0.1667E-01
    -18.845  0.0000E+00  0.0000E+00  0.1667E-01  0.1667E-01
    -18.766  0.0000E+00  0.0000E+00  0.1667E-01  0.1667E-01
    -18.688  0.0000E+00  0.0000E+00  0.1667E-01  0.1667E-01
    -18.609  0.0000E+00  0.0000E+00  0.1667E-01  0.1667E-01
    -18.531  0.0000E+00  0.0000E+00  0.1667E-01  0.1667E-01
    -18.453  0.0000E+00  0.0000E+00  0.1667E-01  0.1667E-01
    -18.374  0.0000E+00  0.0000E+00  0.1667E-01  0.1667E-01
    -18.296  0.0000E+00  0.0000E+00  0.1667E-01  0.1667E-01
    -18.217  0.0000E+00  0.0000E+00  0.1667E-01  0.1667E-01
    -18.139  0.0000E+00  0.0000E+00  0.1667E-01  0.1667E-01
    -18.061  0.0000E+00  0.0000E+00  0.1667E-01  0.1667E-01
    -17.982  0.0000E+00  0.0000E+00  0.1667E-01  0.1667E-01
    -17.904  0.0000E+00  0.0000E+00  0.1667E-01  0.1667E-01
    -17.825  0.0000E+00  0.0000E+00  0.1667E-01  0.1667E-01
    -17.747  0.0000E+00  0.0000E+00  0.1667E-01  0.1667E-01
    -17.669  0.0000E+00  0.0000E+00  0.1667E-01  0.1667E-01
    -17.590  0.0000E+00  0.0000E+00  0.1667E-01  0.1667E-01
    -17.512  0.0000E+00  0.0000E+00  0.1667E-01  0.1667E-01
    -17.433  0.0000E+00  0.0000E+00  0.1667E-01  0.1667E-01
    -17.355  0.0000E+00  0.0000E+00  0.1667E-01  0.1667E-01
    -17.277  0.0000E+00  0.0000E+00  0.1667E-01  0.1667E-01
    -17.198  0.0000E+00  0.0000E+00  0.1667E-01  0.1667E-01
    -17.120  0.0000E+00  0.0000E+00  0.1667E-01  0.1667E-01
    -17.041  0.0000E+00  0.0000E+00  0.1667E-01  0.1667E-01
    -16.963  0.0000E+00  0.0000E+00  0.1667E-01  0.1667E-01
    -16.885  0.0000E+00  0.0000E+00  0.1667E-01  0.1667E-01
    -16.806  0.0000E+00  0.0000E+00  0.1667E-01  0.1667E-01
    -16.728  0.0000E+00  0.0000E+00  0.1667E-01  0.1667E-01
    -16.649  0.0000E+00  0.0000E+00  0.1667E-01  0.1667E-01
    -16.571  0.0000E+00  0.0000E+00  0.1667E-01  0.1667E-01
    -16.493  0.0000E+00  0.0000E+00  0.1667E-01  0.1667E-01
    -16.414  0.0000E+00  0.0000E+00  0.1667E-01  0.1667E-01
    -16.336  0.0000E+00  0.0000E+00  0.1667E-01  0.1667E-01
    -16.257  0.0000E+00  0.0000E+00  0.1667E-01  0.1667E-01
    -16.179  0.0000E+00  0.0000E+00  0.1667E-01  0.1667E-01
    -16.101  0.0000E+00  0.0000E+00  0.1667E-01  0.1667E-01
    -16.022  0.0000E+00  0.0000E+00  0.1667E-01  0.1667E-01
    -15.944  0.0000E+00  0.0000E+00  0.1667E-01  0.1667E-01
    -15.865  0.0000E+00  0.0000E+00  0.1667E-01  0.1667E-01
    -15.787  0.0000E+00  0.0000E+00  0.1667E-01  0.1667E-01
    -15.709  0.0000E+00  0.0000E+00  0.1667E-01  0.1667E-01
    -15.630  0.0000E+00  0.0000E+00  0.1667E-01  0.1667E-01
    -15.552  0.0000E+00  0.0000E+00  0.1667E-01  0.1667E-01
    -15.474  0.0000E+00  0.0000E+00  0.1667E-01  0.1667E-01
    -15.395  0.0000E+00  0.0000E+00  0.1667E-01  0.1667E-01
    -15.317  0.0000E+00  0.0000E+00  0.1667E-01  0.1667E-01
    -15.238  0.0000E+00  0.0000E+00  0.1667E-01  0.1667E-01
    -15.160  0.0000E+00  0.0000E+00  0.1667E-01  0.1667E-01
    -15.082  0.0000E+00  0.0000E+00  0.1667E-01  0.1667E-01
    -15.003  0.0000E+00  0.0000E+00  0.1667E-01  0.1667E-01
    -14.925  0.0000E+00  0.0000E+00  0.1667E-01  0.1667E-01
    -14.846  0.0000E+00  0.0000E+00  0.1667E-01  0.1667E-01
    -14.768  0.0000E+00  0.0000E+00  0.1667E-01  0.1667E-01
    -14.690  0.0000E+00  0.0000E+00  0.1667E-01  0.1667E-01
    -14.611  0.0000E+00  0.0000E+00  0.1667E-01  0.1667E-01
    -14.533  0.0000E+00  0.0000E+00  0.1667E-01  0.1667E-01
    -14.454  0.0000E+00  0.0000E+00  0.1667E-01  0.1667E-01
    -14.376  0.0000E+00  0.0000E+00  0.1667E-01  0.1667E-01
    -14.298  0.0000E+00  0.0000E+00  0.1667E-01  0.1667E-01
    -14.219  0.0000E+00  0.0000E+00  0.1667E-01  0.1667E-01
    -14.141  0.0000E+00  0.0000E+00  0.1667E-01  0.1667E-01
    -14.062  0.0000E+00  0.0000E+00  0.1667E-01  0.1667E-01
    -13.984  0.0000E+00  0.0000E+00  0.1667E-01  0.1667E-01
    -13.906  0.0000E+00  0.0000E+00  0.1667E-01  0.1667E-01
    -13.827  0.0000E+00  0.0000E+00  0.1667E-01  0.1667E-01
    -13.749  0.0000E+00  0.0000E+00  0.1667E-01  0.1667E-01
    -13.670  0.0000E+00  0.0000E+00  0.1667E-01  0.1667E-01
    -13.592  0.0000E+00  0.0000E+00  0.1667E-01  0.1667E-01
    -13.514  0.0000E+00  0.0000E+00  0.1667E-01  0.1667E-01
    -13.435  0.0000E+00  0.0000E+00  0.1667E-01  0.1667E-01
    -13.357  0.0000E+00  0.0000E+00  0.1667E-01  0.1667E-01
    -13.278  0.0000E+00  0.0000E+00  0.1667E-01  0.1667E-01
    -13.200  0.0000E+00  0.0000E+00  0.1667E-01  0.1667E-01
    -13.122  0.0000E+00  0.0000E+00  0.1667E-01  0.1667E-01
    -13.043  0.0000E+00  0.0000E+00  0.1667E-01  0.1667E-01
    -12.965 -0.3993E-29  0.0000E+00  0.1667E-01  0.1667E-01
    -12.886 -0.6239E-24  0.0000E+00  0.1667E-01  0.1667E-01
    -12.808 -0.2819E-19  0.0000E+00  0.1667E-01  0.1667E-01
    -12.730 -0.3554E-15  0.0000E+00  0.1667E-01  0.1667E-01
    -12.651 -0.1318E-11  0.0000E+00  0.1667E-01  0.1667E-01
    -12.573 -0.1381E-08  0.0000E+00  0.1667E-01  0.1667E-01
    -12.494 -0.4022E-06  0.0000E+00  0.1667E-01  0.1667E-01
    -12.416 -0.3119E-04  0.0000E+00  0.1666E-01  0.1667E-01
    -12.338 -0.5612E-03  0.0000E+00  0.1662E-01  0.1667E-01
    -12.259 -0.5925E-03  0.0000E+00  0.1657E-01  0.1667E-01
    -12.181  0.1392E-01  0.0000E+00  0.1766E-01  0.1667E-01
    -12.103  0.2514E-01  0.0000E+00  0.1964E-01  0.1667E-01
    -12.024  0.6098E-02  0.0000E+00  0.2011E-01  0.1667E-01
    -11.946 -0.1216E-02 -0.4531E-29  0.2002E-01  0.1667E-01
    -11.867 -0.2298E-03 -0.6993E-24  0.2000E-01  0.1667E-01
    -11.789 -0.7160E-05 -0.3120E-19  0.2000E-01  0.1667E-01
    -11.711 -0.5575E-07 -0.3896E-15  0.2000E-01  0.1667E-01
    -11.632 -0.1181E-09 -0.1422E-11  0.2000E-01  0.1667E-01
    -11.554 -0.7009E-13 -0.1471E-08  0.2000E-01  0.1667E-01
    -11.475 -0.9441E-17 -0.4230E-06  0.2000E-01  0.1667E-01
    -11.397  0.0000E+00 -0.3236E-04  0.2000E-01  0.1666E-01
    -11.319  0.0000E+00 -0.5727E-03  0.2000E-01  0.1662E-01
    -11.240  0.0000E+00 -0.5500E-03  0.2000E-01  0.1658E-01
    -11.162  0.0000E+00  0.1414E-01  0.2000E-01  0.1768E-01
    -11.083  0.0000E+00  0.2506E-01  0.2000E-01  0.1965E-01
    -11.005  0.0000E+00  0.5920E-02  0.2000E-01  0.2011E-01
    -10.927  0.0000E+00 -0.1214E-02  0.2000E-01  0.2002E-01
    -10.848  0.0000E+00 -0.2236E-03  0.2000E-01  0.2000E-01
    -10.770  0.0000E+00 -0.6864E-05  0.2000E-01  0.2000E-01
    -10.691  0.0000E+00 -0.5274E-07  0.2000E-01  0.2000E-01
    -10.613  0.0000E+00 -0.1102E-09  0.2000E-01  0.2000E-01
    -10.535  0.0000E+00 -0.6463E-13  0.2000E-01  0.2000E-01
    -10.456  0.0000E+00 -0.9441E-17  0.2000E-01  0.2000E-01
    -10.378  0.0000E+00  0.0000E+00  0.2000E-01  0.2000E-01
    -10.299  0.0000E+00  0.0000E+00  0.2000E-01  0.2000E-01
    -10.221  0.0000E+00  0.0000E+00  0.2000E-01  0.2000E-01
    -10.143  0.0000E+00  0.0000E+00  0.2000E-01  0.2000E-01
    -10.064  0.0000E+00  0.0000E+00  0.2000E-01  0.2000E-01
     -9.986  0.0000E+00  0.0000E+00  0.2000E-01  0.2000E-01
     -9.907  0.0000E+00  0.0000E+00  0.2000E-01  0.2000E-01
     -9.829  0.0000E+00  0.0000E+00  0.2000E-01  0.2000E-01
     -9.751  0.0000E+00  0.0000E+00  0.2000E-01  0.2000E-01
     -9.672  0.0000E+00  0.0000E+00  0.2000E-01  0.2000E-01
     -9.594  0.0000E+00  0.0000E+00  0.2000E-01  0.2000E-01
     -9.515  0.0000E+00  0.0000E+00  0.2000E-01  0.2000E-01
     -9.437  0.0000E+00  0.0000E+00  0.2000E-01  0.2000E-01
     -9.359  0.0000E+00  0.0000E+00  0.2000E-01  0.2000E-01
     -9.280  0.0000E+00  0.0000E+00  0.2000E-01  0.2000E-01
     -9.202  0.0000E+00  0.0000E+00  0.2000E-01  0.2000E-01
     -9.123  0.0000E+00  0.0000E+00  0.2000E-01  0.2000E-01
     -9.045  0.0000E+00  0.0000E+00  0.2000E-01  0.2000E-01
     -8.967  0.0000E+00  0.0000E+00  0.2000E-01  0.2000E-01
     -8.888  0.0000E+00  0.0000E+00  0.2000E-01  0.2000E-01
     -8.810  0.0000E+00  0.0000E+00  0.2000E-01  0.2000E-01
     -8.731  0.0000E+00  0.0000E+00  0.2000E-01  0.2000E-01
     -8.653  0.0000E+00  0.0000E+00  0.2000E-01  0.2000E-01
     -8.575  0.0000E+00  0.0000E+00  0.2000E-01  0.2000E-01
     -8.496  0.0000E+00  0.0000E+00  0.2000E-01  0.2000E-01
     -8.418  0.0000E+00  0.0000E+00  0.2000E-01  0.2000E-01
     -8.340  0.0000E+00  0.0000E+00  0.2000E-01  0.2000E-01
     -8.261  0.0000E+00  0.0000E+00  0.2000E-01  0.2000E-01
     -8.183  0.0000E+00  0.0000E+00  0.2000E-01  0.2000E-01
     -8.104  0.0000E+00  0.0000E+00  0.2000E-01  0.2000E-01
     -8.026  0.0000E+00  0.0000E+00  0.2000E-01  0.2000E-01
     -7.948  0.0000E+00  0.0000E+00  0.2000E-01  0.2000E-01
     -7.869  0.0000E+00  0.0000E+00  0.2000E-01  0.2000E-01
     -7.791  0.0000E+00  0.0000E+00  0.2000E-01  0.2000E-01
     -7.712  0.0000E+00  0.0000E+00  0.2000E-01  0.2000E-01
     -7.634  0.0000E+00  0.0000E+00  0.2000E-01  0.2000E-01
     -7.556  0.0000E+00  0.0000E+00  0.2000E-01  0.2000E-01
     -7.477  0.0000E+00  0.0000E+00  0.2000E-01  0.2000E-01
     -7.399  0.0000E+00  0.0000E+00  0.2000E-01  0.2000E-01
     -7.320  0.0000E+00  0.0000E+00  0.2000E-01  0.2000E-01
     -7.242  0.0000E+00  0.0000E+00  0.2000E-01  0.2000E-01
     -7.164  0.0000E+00  0.0000E+00  0.2000E-01  0.2000E-01
     -7.085  0.0000E+00  0.0000E+00  0.2000E-01  0.2000E-01
     -7.007  0.0000E+00  0.0000E+00  0.2000E-01  0.2000E-01
     -6.928  0.0000E+00  0.0000E+00  0.2000E-01  0.2000E-01
     -6.850  0.0000E+00  0.0000E+00  0.2000E-01  0.2000E-01
     -6.772  0.0000E+00  0.0000E+00  0.2000E-01  0.2000E-01
     -6.693  0.0000E+00  0.0000E+00  0.2000E-01  0.2000E-01
     -6.615  0.0000E+00  0.0000E+00  0.2000E-01  0.2000E-01
     -6.536  0.0000E+00  0.0000E+00  0.2000E-01  0.2000E-01
     -6.458  0.0000E+00  0.0000E+00  0.2000E-01  0.2000E-01
     -6.380  0.0000E+00  0.0000E+00  0.2000E-01  0.2000E-01
     -6.301  0.0000E+00  0.0000E+00  0.2000E-01  0.2000E-01
     -6.223  0.0000E+00  0.0000E+00  0.2000E-01  0.2000E-01
     -6.144  0.0000E+00  0.0000E+00  0.2000E-01  0.2000E-01
     -6.066  0.0000E+00  0.0000E+00  0.2000E-01  0.2000E-01
     -5.988  0.0000E+00  0.0000E+00  0.2000E-01  0.2000E-01
     -5.909  0.0000E+00  0.0000E+00  0.2000E-01  0.2000E-01
     -5.831  0.0000E+00  0.0000E+00  0.2000E-01  0.2000E-01
     -5.752  0.0000E+00  0.0000E+00  0.2000E-01  0.2000E-01
     -5.674  0.0000E+00  0.0000E+00  0.2000E-01  0.2000E-01
     -5.596  0.0000E+00  0.0000E+00  0.2000E-01  0.2000E-01
     -5.517  0.0000E+00  0.0000E+00  0.2000E-01  0.2000E-01
     -5.439  0.0000E+00  0.0000E+00  0.2000E-01  0.2000E-01
     -5.360  0.0000E+00  0.0000E+00  0.2000E-01  0.2000E-01
     -5.282  0.0000E+00  0.0000E+00  0.2000E-01  0.2000E-01
     -5.204  0.0000E+00  0.0000E+00  0.2000E-01  0.2000E-01
     -5.125  0.0000E+00  0.0000E+00  0.2000E-01  0.2000E-01
     -5.047  0.0000E+00  0.0000E+00  0.2000E-01  0.2000E-01
     -4.969  0.0000E+00  0.0000E+00  0.2000E-01  0.2000E-01
     -4.890  0.0000E+00  0.0000E+00  0.2000E-01  0.2000E-01
     -4.812  0.0000E+00  0.0000E+00  0.2000E-01  0.2000E-01
     -4.733  0.0000E+00  0.0000E+00  0.2000E-01  0.2000E-01
     -4.655  0.0000E+00  0.0000E+00  0.2000E-01  0.2000E-01
     -4.577 -0.8231E-33  0.0000E+00  0.2000E-01  0.2000E-01
     -4.498 -0.3094E-27  0.0000E+00  0.2000E-01  0.2000E-01
     -4.420 -0.3229E-22  0.0000E+00  0.2000E-01  0.2000E-01
     -4.341 -0.9829E-18  0.0000E+00  0.2000E-01  0.2000E-01
     -4.263 -0.8435E-14  0.0000E+00  0.2000E-01  0.2000E-01
     -4.185 -0.2153E-10  0.0000E+00  0.2000E-01  0.2000E-01
     -4.106 -0.1581E-07  0.0000E+00  0.2000E-01  0.2000E-01
     -4.028 -0.3281E-05  0.0000E+00  0.2000E-01  0.2000E-01
     -3.949 -0.1831E-03  0.0000E+00  0.1999E-01  0.2000E-01
     -3.871 -0.2290E-02  0.0000E+00  0.1981E-01  0.2000E-01
     -3.793  0.1543E-02  0.0000E+00  0.1993E-01  0.2000E-01
     -3.714  0.5249E-01  0.0000E+00  0.2404E-01  0.2000E-01
     -3.636  0.6879E-01  0.0000E+00  0.2943E-01  0.2000E-01
     -3.557  0.1097E-01  0.0000E+00  0.3029E-01  0.2000E-01
     -3.479 -0.3282E-02  0.0000E+00  0.3004E-01  0.2000E-01
     -3.401 -0.4560E-03  0.0000E+00  0.3000E-01  0.2000E-01
     -3.322 -0.1201E-04 -0.5104E-30  0.3000E-01  0.2000E-01
     -3.244 -0.8144E-07 -0.1038E-24  0.3000E-01  0.2000E-01
     -3.165 -0.1525E-09 -0.6112E-20  0.3000E-01  0.2000E-01
     -3.087 -0.8083E-13 -0.1016E-15  0.3000E-01  0.2000E-01
     -3.009 -0.1888E-16 -0.4894E-12  0.3000E-01  0.2000E-01
     -2.930  0.0000E+00 -0.6742E-09  0.3000E-01  0.2000E-01
     -2.852  0.0000E+00 -0.2600E-06  0.3000E-01  0.2000E-01
     -2.773  0.0000E+00 -0.2714E-04  0.3000E-01  0.2000E-01
     -2.695  0.0000E+00 -0.6986E-03  0.3000E-01  0.1994E-01
     -2.617  0.0000E+00 -0.2626E-02  0.3000E-01  0.1974E-01
     -2.538  0.0000E+00  0.1702E-01  0.3000E-01  0.2107E-01
     -2.460  0.0000E+00  0.6077E-01  0.3000E-01  0.2584E-01
     -2.381  0.0000E+00  0.4688E-01  0.3000E-01  0.2951E-01
     -2.303  0.0000E+00  0.8534E-02  0.3000E-01  0.3018E-01
     -2.225  0.0000E+00 -0.1839E-02  0.3000E-01  0.3004E-01
     -2.146  0.0000E+00 -0.4418E-03  0.3000E-01  0.3000E-01
     -2.068  0.0000E+00 -0.1824E-04  0.3000E-01  0.3000E-01
     -1.989  0.0000E+00 -0.1896E-06  0.3000E-01  0.3000E-01
     -1.911  0.0000E+00 -0.5356E-09  0.3000E-01  0.3000E-01
     -1.833  0.0000E+00 -0.4233E-12  0.3000E-01  0.3000E-01
     -1.754 -0.3604E-33 -0.9441E-16  0.3000E-01  0.3000E-01
     -1.676 -0.1366E-27  0.0000E+00  0.3000E-01  0.3000E-01
     -1.598 -0.1499E-22  0.0000E+00  0.3000E-01  0.3000E-01
     -1.519 -0.4755E-18  0.0000E+00  0.3000E-01  0.3000E-01
     -1.441 -0.4201E-14  0.0000E+00  0.3000E-01  0.3000E-01
     -1.362 -0.1087E-10  0.0000E+00  0.3000E-01  0.3000E-01
     -1.284 -0.7928E-08  0.0000E+00  0.3000E-01  0.3000E-01
     -1.206 -0.1594E-05  0.0000E+00  0.3000E-01  0.3000E-01
     -1.127 -0.8341E-04  0.0000E+00  0.2999E-01  0.3000E-01
     -1.049 -0.9162E-03  0.0000E+00  0.2992E-01  0.3000E-01
     -0.970  0.1363E-02  0.0000E+00  0.3003E-01  0.3000E-01
     -0.892  0.2012E-01 -0.1026E-32  0.3161E-01  0.3000E-01
     -0.814  0.2118E-01 -0.3532E-27  0.3327E-01  0.3000E-01
     -0.735  0.1947E-02 -0.3519E-22  0.3342E-01  0.3000E-01
     -0.657 -0.9848E-03 -0.1013E-17  0.3334E-01  0.3000E-01
     -0.578 -0.9958E-04 -0.8116E-14  0.3333E-01  0.3000E-01
     -0.500 -0.2057E-05 -0.1903E-10  0.3333E-01  0.3000E-01
     -0.422 -0.1104E-07 -0.1257E-07  0.3333E-01  0.3000E-01
     -0.343 -0.2123E-07 -0.2281E-05  0.3333E-01  0.3000E-01
     -0.265 -0.3419E-05 -0.1069E-03  0.3333E-01  0.2999E-01
     -0.186 -0.1409E-03 -0.1012E-02  0.3332E-01  0.2991E-01
     -0.108 -0.1110E-02  0.2207E-02  0.3324E-01  0.3009E-01
     -0.030  0.3349E-02  0.2159E-01  0.3350E-01  0.3178E-01
      0.049  0.2269E-01  0.1966E-01  0.3528E-01  0.3332E-01
      0.127  0.1671E-01  0.9707E-03  0.3659E-01  0.3340E-01
      0.206  0.1082E-01 -0.2083E-02  0.3743E-01  0.3323E-01
      0.284  0.2516E-01  0.3842E-02  0.3941E-01  0.3353E-01
      0.362  0.9071E-02  0.2330E-01  0.4012E-01  0.3536E-01
      0.441 -0.1147E-02  0.2894E-01  0.4003E-01  0.3763E-01
      0.519 -0.3440E-03  0.2543E-01  0.4000E-01  0.3962E-01
      0.598 -0.1356E-04  0.6356E-02  0.4000E-01  0.4012E-01
      0.676 -0.1301E-06 -0.1260E-02  0.4000E-01  0.4002E-01
      0.754 -0.3369E-09 -0.2641E-03  0.4000E-01  0.4000E-01
      0.833 -0.2438E-12 -0.8856E-05  0.4000E-01  0.4000E-01
      0.911 -0.4721E-16 -0.7379E-07  0.4000E-01  0.4000E-01
      0.990  0.0000E+00 -0.1669E-09  0.4000E-01  0.4000E-01
      1.068  0.0000E+00 -0.1057E-12  0.4000E-01  0.4000E-01
      1.146  0.0000E+00 -0.1888E-16  0.4000E-01  0.4000E-01
      1.225  0.0000E+00  0.0000E+00  0.4000E-01  0.4000E-01
      1.303  0.0000E+00  0.0000E+00  0.4000E-01  0.4000E-01
      1.382  0.0000E+00  0.0000E+00  0.4000E-01  0.4000E-01
      1.460  0.0000E+00  0.0000E+00  0.4000E-01  0.4000E-01
      1.538  0.0000E+00  0.0000E+00  0.4000E-01  0.4000E-01
