    1    1  300    2
  0.1710693E+04  0.8532700E-09  0.8497000E-09  0.2359500E-08  0.5000000E-15
  1.000000000000000E-004
  CAR 
 ni3al                                   
     14      1     12
 
  0.0000000E+00  0.0000000E+00  0.0000000E+00  0.1000000E+01
      1        -20.911312      -20.720869   1.000000   1.000000
      2        -20.911245      -20.720518   1.000000   1.000000
      3        -20.867306      -20.664597   1.000000   1.000000
      4        -20.865210      -20.661932   1.000000   1.000000
      5        -20.851074      -20.644717   1.000000   1.000000
      6        -12.156401      -11.138048   1.000000   1.000000
      7         -3.716833       -2.498485   0.775242  -0.000000
      8         -3.695944       -2.494438   0.615971  -0.000000
      9         -3.695069       -2.417549   0.608787  -0.000000
     10         -0.889771       -0.033536   0.000000   0.000000
     11          0.037775        0.345736   0.000000   0.000000
     12          0.242371        0.469291   0.000000   0.000000
