srun: ROUTE: split_hostlist: hl=b06r2n09 tree_width 0
 running on    4 total cores
 distrk:  each k-point on    1 cores,    4 groups
 distr:  one band on    1 cores,    1 groups
 HIP runtime initialized ...    4 DCUs will be used
 Created    4 streams on each DCU
 vasp.6.3.2 27Jun22 (build Mar 15 2023 15:45:48) complex                        
  
 POSCAR found type information on POSCAR Pb
 POSCAR found :  1 types and       1 ions
 Reading from existing POTCAR
 -----------------------------------------------------------------------------
|                                                                             |
|           W    W    AA    RRRRR   N    N  II  N    N   GGGG   !!!           |
|           W    W   A  A   R    R  NN   N  II  NN   N  G    G  !!!           |
|           W    W  A    A  R    R  N N  N  II  N N  N  G       !!!           |
|           W WW W  AAAAAA  RRRRR   N  N N  II  N  N N  G  GGG   !            |
|           WW  WW  A    A  R   R   N   NN  II  N   NN  G    G                |
|           W    W  A    A  R    R  N    N  II  N    N   GGGG   !!!           |
|                                                                             |
|     You use a magnetic or noncollinear calculation, but did not specify     |
|     the initial magnetic moment with the MAGMOM tag. Note that a            |
|     default of 1 will be used for all atoms. This ferromagnetic setup       |
|     may break the symmetry of the crystal, in particular it may rule        |
|     out finding an antiferromagnetic solution. Thence, we recommend         |
|     setting the initial magnetic moment manually or verifying carefully     |
|     that this magnetic setup is desired.                                    |
|                                                                             |
 -----------------------------------------------------------------------------

 scaLAPACK will be used selectively (only on CPU)
 Reading from existing POTCAR
 LDA part: xc-table for Pade appr. of Perdew
 POSCAR found type information on POSCAR Pb
 POSCAR found :  1 types and       1 ions
 POSCAR, INCAR and KPOINTS ok, starting setup
 FFT: planning ... GRIDC
 FFT: planning ... GRID_SOFT
 FFT: planning ... GRID
 WAVECAR not read
 entering main loop
       N       E                     dE             d eps       ncg     rms          rms(c)
DAV:   1     0.101746625082E+03    0.10175E+03   -0.29164E+03    68   0.488E+02
DAV:   2     0.948701486157E+01   -0.92260E+02   -0.91869E+02    56   0.256E+02
DAV:   3     0.312708085367E+00   -0.91743E+01   -0.90244E+01    48   0.906E+01
DAV:   4    -0.119287582907E+00   -0.43200E+00   -0.39071E+00    48   0.215E+01
DAV:   5    -0.139517833972E+00   -0.20230E-01   -0.20010E-01    72   0.444E+00    0.457E+00
DAV:   6     0.818283438540E+00    0.95780E+00   -0.33313E+00    52   0.927E+00    0.162E+00
DAV:   7     0.484024284686E+00   -0.33426E+00   -0.19647E-01    56   0.207E+00    0.718E-01
DAV:   8     0.355586303611E+00   -0.12844E+00   -0.96394E-03    56   0.475E-01    0.613E-01
DAV:   9    -0.285991040655E-01   -0.38419E+00   -0.14082E-01    52   0.140E+00    0.368E-01
DAV:  10    -0.106400181574E+00   -0.77801E-01   -0.26735E-02    52   0.967E-01    0.502E-01
DAV:  11    -0.106524188459E+00   -0.12401E-03   -0.48044E-04    48   0.177E-01    0.501E-01
DAV:  12    -0.107469969610E+00   -0.94578E-03   -0.23679E-04    48   0.146E-01    0.506E-01
DAV:  13    -0.104996065560E+00    0.24739E-02   -0.24310E-03    48   0.437E-01    0.537E-01
DAV:  14    -0.118656402283E+00   -0.13660E-01   -0.12399E-03    48   0.297E-01    0.427E-01
DAV:  15    -0.261631795421E+00   -0.14298E+00   -0.27427E-02    48   0.723E-01    0.278E-01
DAV:  16    -0.309955320432E+00   -0.48324E-01   -0.60847E-03    48   0.472E-01    0.252E-01
DAV:  17    -0.307001154348E+00    0.29542E-02   -0.33957E-04    48   0.151E-01    0.243E-01
DAV:  18    -0.366170691910E+00   -0.59170E-01   -0.70763E-03    48   0.495E-01    0.226E-01
DAV:  19    -0.458337598120E+00   -0.92167E-01   -0.32083E-02    48   0.114E+00    0.195E-01
DAV:  20    -0.499446764882E+00   -0.41109E-01   -0.21528E-02    48   0.937E-01    0.327E-01
DAV:  21    -0.505064670240E+00   -0.56179E-02   -0.29484E-03    48   0.567E-01    0.273E-01
DAV:  22    -0.537787888245E+00   -0.32723E-01   -0.15178E-02    48   0.101E+00    0.349E-01
DAV:  23    -0.555561674173E+00   -0.17774E-01   -0.27666E-03    48   0.456E-01    0.370E-01
DAV:  24    -0.554477829799E+00    0.10838E-02   -0.22197E-04    48   0.176E-01    0.331E-01
DAV:  25    -0.572959731895E+00   -0.18482E-01   -0.38557E-03    48   0.581E-01    0.150E-01
DAV:  26    -0.618276169405E+00   -0.45316E-01   -0.86189E-03    52   0.479E-01    0.617E-02
DAV:  27    -0.622045603679E+00   -0.37694E-02   -0.37104E-04    48   0.148E-01    0.509E-02
DAV:  28    -0.624885577402E+00   -0.28400E-02   -0.67561E-04    48   0.115E-01    0.142E-02
DAV:  29    -0.625468337074E+00   -0.58276E-03   -0.17343E-04    52   0.672E-02    0.104E-02
DAV:  30    -0.625854021820E+00   -0.38568E-03   -0.24451E-05    48   0.293E-02    0.758E-03
DAV:  31    -0.626298990996E+00   -0.44497E-03   -0.61085E-05    48   0.296E-02    0.418E-03
DAV:  32    -0.626374871676E+00   -0.75881E-04   -0.16939E-05    48   0.158E-02    0.205E-03
DAV:  33    -0.626419250779E+00   -0.44379E-04   -0.12834E-05    52   0.153E-02    0.232E-03
DAV:  34    -0.626439916585E+00   -0.20666E-04   -0.49508E-06    52   0.957E-03    0.316E-03
DAV:  35    -0.626458347712E+00   -0.18431E-04   -0.21066E-06    48   0.121E-02    0.117E-03
DAV:  36    -0.626467058649E+00   -0.87109E-05   -0.27436E-06    48   0.831E-03    0.139E-03
DAV:  37    -0.626461771943E+00    0.52867E-05   -0.29919E-06    48   0.794E-03    0.129E-03
DAV:  38    -0.626459029808E+00    0.27421E-05   -0.41621E-06    48   0.120E-02    0.118E-03
DAV:  39    -0.626473207054E+00   -0.14177E-04   -0.29719E-06    48   0.903E-03    0.192E-03
DAV:  40    -0.626489645239E+00   -0.16438E-04   -0.35017E-06    48   0.997E-03    0.877E-04
DAV:  41    -0.626491086138E+00   -0.14409E-05   -0.35737E-07    48   0.509E-03    0.136E-03
DAV:  42    -0.626498064976E+00   -0.69788E-05   -0.42315E-07    48   0.318E-03    0.330E-04
DAV:  43    -0.626505546942E+00   -0.74820E-05   -0.34113E-07    48   0.185E-03    0.183E-04
DAV:  44    -0.626509174364E+00   -0.36274E-05   -0.55967E-08    44   0.113E-03    0.117E-04
DAV:  45    -0.626513079479E+00   -0.39051E-05   -0.76854E-08    44   0.800E-04    0.148E-04
DAV:  46    -0.626514179464E+00   -0.11000E-05   -0.19894E-08    44   0.603E-04    0.859E-05
DAV:  47    -0.626514555814E+00   -0.37635E-06   -0.54686E-09    32   0.316E-04
   1 F= -.62651456E+00 E0= -.61445048E+00  d E =-.626515E+00  mag=     2.0000
 curvature:   0.00 expect dE= 0.000E+00 dE for cont linesearch  0.000E+00
 trial: gam= 0.00000 g(F)=  0.990E-43 g(S)=  0.000E+00 ort = 0.000E+00 (trialstep = 0.100E+01)
 search vector abs. value=  0.100E-09
 reached required accuracy - stopping structural energy minimisation
 PROFILE, used timers:     210
