ni3al                                   
           1
     8.532700    0.000000    0.000000
    -0.000519    8.497000    0.000000
     0.000000    0.000000   23.594999
   Pb
     1
Direct configuration=     1
   0.49837660  0.15808104  0.44406941
