   64   64    1    2
  0.2672958E+02  0.8532700E-09  0.8497000E-09  0.2359500E-08  0.1000000E-16
  1.000000000000000E-004
  CAR 
 Fe2O3                                   
    574     10    376
 
  0.0000000E+00  0.0000000E+00  0.0000000E+00  0.6250000E-01
      1        -42.758962      -43.295066   1.000000   1.000000
      2        -42.742850      -43.243632   1.000000   1.000000
      3        -42.730082      -43.232773   1.000000   1.000000
      4        -42.723015      -43.215570   1.000000   1.000000
      5        -42.697347      -43.208130   1.000000   1.000000
      6        -42.682510      -43.199418   1.000000   1.000000
      7        -42.659668      -43.182833   1.000000   1.000000
      8        -42.657793      -43.155334   1.000000   1.000000
      9        -42.646671      -43.147709   1.000000   1.000000
     10        -42.263528      -43.136957   1.000000   1.000000
     11        -42.192675      -43.126196   1.000000   1.000000
     12        -42.136691      -43.117852   1.000000   1.000000
     13        -41.930812      -43.112557   1.000000   1.000000
     14        -41.899003      -43.108492   1.000000   1.000000
     15        -41.859366      -43.102792   1.000000   1.000000
     16        -41.854283      -43.092828   1.000000   1.000000
     17        -41.837322      -43.085678   1.000000   1.000000
     18        -41.832619      -43.078751   1.000000   1.000000
     19        -41.813232      -43.066373   1.000000   1.000000
     20        -41.798792      -43.034394   1.000000   1.000000
     21        -41.781205      -43.012888   1.000000   1.000000
     22        -41.752694      -42.959151   1.000000   1.000000
     23        -41.744616      -42.911890   1.000000   1.000000
     24        -41.737345      -42.911071   1.000000   1.000000
     25        -41.736424      -42.883218   1.000000   1.000000
     26        -41.733591      -42.822821   1.000000   1.000000
     27        -41.716598      -42.761176   1.000000   1.000000
     28        -41.707322      -42.724187   1.000000   1.000000
     29        -41.696496      -42.659924   1.000000   1.000000
     30        -41.696299      -42.561879   1.000000   1.000000
     31        -41.680057      -41.595302   1.000000   1.000000
     32        -41.678719      -41.496788   1.000000   1.000000
     33        -41.667683      -41.425434   1.000000   1.000000
     34        -40.468267      -40.391177   1.000000   1.000000
     35        -40.394661      -40.384108   1.000000   1.000000
     36        -40.330392      -40.080461   1.000000   1.000000
     37        -40.301057      -39.954751   1.000000   1.000000
     38        -40.283812      -39.874429   1.000000   1.000000
     39        -40.257569      -39.862716   1.000000   1.000000
     40        -40.239609      -39.744936   1.000000   1.000000
     41        -40.143705      -39.680955   1.000000   1.000000
     42        -40.134879      -39.583370   1.000000   1.000000
     43        -15.321553      -15.316020   1.000000   1.000000
     44        -15.293125      -15.292036   1.000000   1.000000
     45        -15.285796      -15.285899   1.000000   1.000000
     46        -15.257985      -15.246031   1.000000   1.000000
     47        -15.242517      -15.228867   1.000000   1.000000
     48         -7.382165       -7.399489   1.000000   1.000000
     49         -7.115442       -7.032830   1.000000   1.000000
     50         -6.187544       -6.033697   1.000000   1.000000
     51         -5.250166       -5.055669   1.000000   1.000000
     52         -5.193915       -5.033289   1.000000   1.000000
     53         -5.167889       -5.019351   1.000000   1.000000
     54         -5.141396       -5.002179   1.000000   1.000000
     55         -4.899148       -4.624260   1.000000   1.000000
     56         -4.611631       -4.305796   1.000000   1.000000
     57         -4.578122       -4.285148   1.000000   1.000000
     58         -4.532276       -4.244119   1.000000   1.000000
     59         -4.516133       -4.224338   1.000000   1.000000
     60         -4.097542       -3.652696   1.000000   1.000000
     61         -4.086017       -3.646389   1.000000   1.000000
     62         -4.068401       -3.607260   1.000000   1.000000
     63         -4.054268       -3.571121   1.000000   1.000000
     64         -4.032377       -3.500167   1.000000   1.000000
     65         -4.010392       -3.484617   1.000000   1.000000
     66         -3.995207       -3.403684   1.000000   1.000000
     67         -3.973300       -3.394190   1.000000   1.000000
     68         -3.775298       -3.229678   1.000000   1.000000
     69         -3.753546       -2.890601   1.000000   1.000000
     70         -3.685431       -2.863809   1.000000   1.000000
     71         -3.615323       -2.844055   1.000000   1.000000
     72         -3.584851       -2.802385   1.000000   1.000000
     73         -3.542403       -2.783362   1.000000   1.000000
     74         -3.506020       -2.745852   1.000000   1.000000
     75         -3.421715       -2.724558   1.000000   1.000000
     76         -3.393891       -2.702817   1.000000   1.000000
     77         -3.372722       -2.617110   1.000000   1.000000
     78         -3.356048       -2.511433   1.000000   1.000000
     79         -3.340682       -2.496762   1.000000   1.000000
     80         -3.331131       -2.381629   1.000000   1.000000
     81         -3.307628       -2.340315   1.000000   1.000000
     82         -3.304338       -2.323945   1.000000   1.000000
     83         -3.289293       -2.311314   1.000000   1.000000
     84         -3.273772       -2.274131   1.000000   1.000000
     85         -3.252329       -2.249059   1.000000   1.000000
     86         -3.235030       -2.241094   1.000000   1.000000
     87         -3.225345       -2.223616   1.000000   1.000000
     88         -3.215690       -2.178222   1.000000   1.000000
     89         -3.178691       -2.163506   1.000000   1.000000
     90         -3.165998       -2.145140   1.000000   1.000000
     91         -3.154771       -2.113422   1.000000   1.000000
     92         -3.129762       -2.088583   1.000000   1.000000
     93         -3.088648       -2.083730   1.000000   1.000000
     94         -3.076243       -2.039803   1.000000   1.000000
     95         -3.043237       -1.995745   1.000000   1.000000
     96         -2.999120       -1.972215   1.000000   1.000000
     97         -2.953328       -1.917520   1.000000   1.000000
     98         -2.930154       -1.838122   1.000000   1.000000
     99         -2.925610       -1.792865   1.000000   1.000000
    100         -2.915061       -1.778033   1.000000   1.000000
    101         -2.892990       -1.763324   1.000000   1.000000
    102         -2.882338       -1.731936   1.000000   1.000000
    103         -2.861916       -1.706593   1.000000   1.000000
    104         -2.848679       -1.679395   1.000000   1.000000
    105         -2.825876       -1.639227   1.000000   1.000000
    106         -2.812977       -1.603490   1.000000   1.000000
    107         -2.805312       -1.580002   1.000000   1.000000
    108         -2.794166       -1.566025   1.000000   1.000000
    109         -2.783847       -1.541703   1.000000   1.000000
    110         -2.757089       -1.512813   1.000000   1.000000
    111         -2.689872       -1.493602   1.000000   1.000000
    112         -2.677541       -1.477528   1.000000   1.000000
    113         -2.630794       -1.457917   1.000000   1.000000
    114         -2.598632       -1.449775   1.000000   1.000000
    115         -2.572168       -1.422703   1.000000   1.000000
    116         -2.567784       -1.416747   1.000000   1.000000
    117         -2.552242       -1.405964   1.000000   1.000000
    118         -2.538582       -1.374004   1.000000   1.000000
    119         -2.530169       -1.369961   1.000000   1.000000
    120         -2.523531       -1.320321   1.000000   1.000000
    121         -2.510274       -1.305508   1.000000   1.000000
    122         -2.501762       -1.294902   1.000000   1.000000
    123         -2.493685       -1.271647   1.000000   1.000000
    124         -2.477262       -1.254739   1.000000   1.000000
    125         -2.475662       -1.232180   1.000000   1.000000
    126         -2.454300       -1.222783   1.000000   1.000000
    127         -2.452153       -1.188828   1.000000   1.000000
    128         -2.445356       -1.171021   1.000000   1.000000
    129         -2.435373       -1.143042   1.000000   1.000000
    130         -2.431341       -1.134994   1.000000   1.000000
    131         -2.419827       -1.124668   1.000000   1.000000
    132         -2.405646       -1.097968   1.000000   1.000000
    133         -2.395504       -1.070970   1.000000   1.000000
    134         -2.378726       -1.066404   1.000000   1.000000
    135         -2.365315       -1.045748   1.000000   1.000000
    136         -2.355016       -1.041726   1.000000   1.000000
    137         -2.336791       -1.012826   1.000000   1.000000
    138         -2.326259       -1.007700   1.000000   1.000000
    139         -2.323781       -0.982774   1.000000   1.000000
    140         -2.314456       -0.967252   1.000000   1.000000
    141         -2.301920       -0.951687   1.000000   1.000000
    142         -2.292605       -0.938556   1.000000   1.000000
    143         -2.269804       -0.913294   1.000000   1.000000
    144         -2.263316       -0.908098   1.000000   1.000000
    145         -2.254281       -0.885244   1.000000   1.000000
    146         -2.241010       -0.873044   1.000000   1.000000
    147         -2.224984       -0.866201   1.000000   1.000000
    148         -2.208326       -0.861376   1.000000   1.000000
    149         -2.200345       -0.836449   1.000000   1.000000
    150         -2.180794       -0.815530   1.000000   1.000000
    151         -2.177093       -0.799147   1.000000   1.000000
    152         -2.168057       -0.792334   1.000000   1.000000
    153         -2.156252       -0.775698   1.000000   1.000000
    154         -2.147703       -0.769850   1.000000   1.000000
    155         -2.126294       -0.733745   1.000000   1.000000
    156         -2.098668       -0.725400   1.000000   1.000000
    157         -2.084380       -0.707053   1.000000   1.000000
    158         -2.062074       -0.694428   1.000000   1.000000
    159         -2.057176       -0.672298   1.000000   1.000000
    160         -2.043862       -0.649703   1.000000   1.000000
    161         -2.034451       -0.601385   1.000000   1.000000
    162         -2.027619       -0.599143   1.000000   1.000000
    163         -2.005657       -0.583704   1.000000   1.000000
    164         -1.990587       -0.558094   1.000000   1.000000
    165         -1.980880       -0.536309   1.000000   1.000000
    166         -1.968236       -0.525578   1.000000   1.000000
    167         -1.937404       -0.510124   1.000000   1.000000
    168         -1.924400       -0.505523   1.000000   1.000000
    169         -1.913877       -0.494296   1.000000   1.000000
    170         -1.900334       -0.474776   1.000000   1.000000
    171         -1.881015       -0.451068   1.000000   1.000000
    172         -1.868945       -0.439891   1.000000   1.000000
    173         -1.850839       -0.410772   1.000000   1.000000
    174         -1.842422       -0.393048   1.000000   1.000000
    175         -1.828818       -0.367599   1.000000   1.000000
    176         -1.827344       -0.332927   1.000000   1.000000
    177         -1.812486       -0.325907   1.000000   1.000000
    178         -1.791705       -0.314469   1.000000   1.000000
    179         -1.765613       -0.304302   1.000000   1.000000
    180         -1.758057       -0.297071   1.000000   1.000000
    181         -1.755963       -0.273776   1.000000   1.000000
    182         -1.745928       -0.260729   1.000000   1.000000
    183         -1.734807       -0.254160   1.000000   1.000000
    184         -1.723775       -0.237030   1.000000   1.000000
    185         -1.689051       -0.223570   1.000000   1.000000
    186         -1.670818       -0.206772   1.000000   1.000000
    187         -1.652102       -0.191676   1.000000   1.000000
    188         -1.641773       -0.179616   1.000000   1.000000
    189         -1.617059       -0.172464   1.000000   1.000000
    190         -1.609534       -0.139881   1.000000   1.000000
    191         -1.578733       -0.130825   1.000000   1.000000
    192         -1.567284       -0.108466   1.000000   1.000000
    193         -1.561342       -0.075125   1.000000   1.000000
    194         -1.556215       -0.043681   1.000000   1.000000
    195         -1.528073       -0.029417   1.000000   1.000000
    196         -1.497227       -0.010051   1.000000   1.000000
    197         -1.494317        0.007101   1.000000   1.000000
    198         -1.479967        0.049600   1.000000   1.000000
    199         -1.451711        0.064857   1.000000   1.000000
    200         -1.422104        0.083976   1.000000   1.000000
    201         -1.418461        0.100745   1.000000   1.000000
    202         -1.412208        0.112499   1.000000   1.000000
    203         -1.379023        0.132011   1.000000   1.000000
    204         -1.368859        0.188437   1.000000   1.000000
    205         -1.344539        0.207108   1.000000   1.000000
    206         -1.332613        0.225986   1.000000   1.000000
    207         -1.316419        0.242235   1.000000   1.000000
    208         -1.297350        0.282850   1.000000   1.000000
    209         -1.277078        0.296784   1.000000   1.000000
    210         -1.273424        0.319444   1.000000   1.000000
    211         -1.248743        0.336715   1.000000   1.000000
    212         -1.223185        0.341599   1.000000   1.000000
    213         -1.215055        0.367549   1.000000   1.000000
    214         -1.207294        0.392695   1.000000   1.000000
    215         -1.189595        0.413581   1.000000   1.000000
    216         -1.147581        0.421412   1.000000   1.000000
    217         -1.119879        0.426671   1.000000   1.000000
    218         -1.092726        0.454938   1.000000   1.000000
    219         -1.089691        0.496949   1.000000   1.000000
    220         -1.070137        0.513881   1.000000   1.000000
    221         -1.051985        0.525437   1.000000   1.000000
    222         -1.037624        0.588746   1.000000   1.000000
    223         -1.016867        0.608056   1.000000   1.000000
    224         -1.003118        0.659651   1.000000   1.000001
    225         -0.992105        0.676484   1.000000   1.000004
    226         -0.964385        0.716070   1.000000   1.000051
    227         -0.957809        0.745905   1.000000   1.000264
    228         -0.951665        0.771214   1.000000   1.000909
    229         -0.937378        0.779420   1.000000   1.001315
    230         -0.911027        0.807527   1.000000   1.004124
    231         -0.884209        0.823516   1.000000   1.007239
    232         -0.853964        0.850369   1.000000   1.015942
    233         -0.845752        0.863065   1.000000   1.021463
    234         -0.821789        0.964215   1.000000   0.930219
    235         -0.793616        0.987011   1.000000   0.807369
    236         -0.771266        1.051272   1.000000   0.297707
    237         -0.763141        1.061534   1.000000   0.223072
    238         -0.743487        1.076205   1.000000   0.131804
    239         -0.736364        1.106244   1.000000   0.010739
    240         -0.710083        1.132417   1.000000  -0.030193
    241         -0.698489        1.159848   1.000000  -0.033907
    242         -0.689491        1.165090   1.000000  -0.032293
    243         -0.683628        1.178511   1.000000  -0.026769
    244         -0.665881        1.211346   1.000000  -0.012657
    245         -0.651901        1.218734   1.000000  -0.010206
    246         -0.630858        1.243350   1.000000  -0.004477
    247         -0.612181        1.253713   1.000000  -0.003020
    248         -0.589973        1.270214   1.000000  -0.001530
    249         -0.582977        1.275390   1.000000  -0.001219
    250         -0.573966        1.277984   1.000000  -0.001086
    251         -0.569138        1.281825   1.000000  -0.000912
    252         -0.540329        1.325114   1.000000  -0.000101
    253         -0.531671        1.333210   1.000000  -0.000064
    254         -0.516131        1.341161   1.000000  -0.000040
    255         -0.507695        1.356501   1.000000  -0.000016
    256         -0.495932        1.366450   1.000000  -0.000008
    257         -0.484428        1.394506   1.000000  -0.000001
    258         -0.456863        1.416283   1.000000  -0.000000
    259         -0.449941        1.422514   1.000000  -0.000000
    260         -0.436929        1.432687   1.000000  -0.000000
    261         -0.429246        1.451508   1.000000  -0.000000
    262         -0.416387        1.473616   1.000000  -0.000000
    263         -0.402172        1.481410   1.000000  -0.000000
    264         -0.394744        1.513202   1.000000  -0.000000
    265         -0.375290        1.539278   1.000000  -0.000000
    266         -0.365194        1.549876   1.000000  -0.000000
    267         -0.356131        1.560891   1.000000  -0.000000
    268         -0.344624        1.569050   1.000000  -0.000000
    269         -0.336065        1.582547   1.000000  -0.000000
    270         -0.333025        1.597434   1.000000  -0.000000
    271         -0.322918        1.618257   1.000000  -0.000000
    272         -0.310636        1.632518   1.000000  -0.000000
    273         -0.308972        1.658748   1.000000  -0.000000
    274         -0.300671        1.663138   1.000000  -0.000000
    275         -0.283455        1.674518   1.000000  -0.000000
    276         -0.274926        1.695389   1.000000  -0.000000
    277         -0.263556        1.705308   1.000000  -0.000000
    278         -0.241420        1.714788   1.000000  -0.000000
    279         -0.240325        1.736059   1.000000  -0.000000
    280         -0.229772        1.746222   1.000000  -0.000000
    281         -0.212885        1.758476   1.000000  -0.000000
    282         -0.208553        1.789370   1.000000  -0.000000
    283         -0.201145        1.800231   1.000000  -0.000000
    284         -0.195757        1.820801   1.000000  -0.000000
    285         -0.182957        1.837084   1.000000  -0.000000
    286         -0.169072        1.847623   1.000000  -0.000000
    287         -0.162158        1.865882   1.000000  -0.000000
    288         -0.144144        1.870226   1.000000  -0.000000
    289         -0.135246        1.892596   1.000000  -0.000000
    290         -0.129148        1.922222   1.000000  -0.000000
    291         -0.111006        1.931680   1.000000  -0.000000
    292         -0.100545        1.934848   1.000000  -0.000000
    293         -0.082563        1.984882   1.000000  -0.000000
    294         -0.079642        1.998116   1.000000  -0.000000
    295         -0.059930        2.011473   1.000000  -0.000000
    296         -0.055472        2.014789   1.000000  -0.000000
    297         -0.046893        2.040861   1.000000  -0.000000
    298         -0.035244        2.056273   1.000000  -0.000000
    299         -0.024888        2.063122   1.000000  -0.000000
    300         -0.010184        2.087652   1.000000  -0.000000
    301          0.005734        2.094472   1.000000  -0.000000
    302          0.026989        2.097518   1.000000  -0.000000
    303          0.030265        2.108213   1.000000  -0.000000
    304          0.047955        2.114248   1.000000  -0.000000
    305          0.080889        2.139442   1.000000  -0.000000
    306          0.116586        2.144167   1.000000  -0.000000
    307          0.132399        2.152500   1.000000  -0.000000
    308          0.175147        2.158974   1.000000  -0.000000
    309          0.185054        2.186553   1.000000  -0.000000
    310          0.202439        2.196832   1.000000  -0.000000
    311          0.210376        2.204755   1.000000  -0.000000
    312          0.222857        2.211607   1.000000  -0.000000
    313          0.256139        2.216520   1.000000  -0.000000
    314          0.262936        2.222848   1.000000  -0.000000
    315          0.314106        2.237878   1.000000  -0.000000
    316          0.324303        2.241507   1.000000  -0.000000
    317          0.338515        2.249866   1.000000  -0.000000
    318          0.373226        2.270456   1.000000  -0.000000
    319          0.404989        2.275613   1.000000  -0.000000
    320          0.420329        2.287145   1.000000  -0.000000
    321          0.469943        2.290640   1.000000  -0.000000
    322          0.494566        2.298754   1.000000  -0.000000
    323          0.499823        2.303629   1.000000  -0.000000
    324          0.537285        2.309010   1.000000  -0.000000
    325          0.578980        2.325358   1.000000  -0.000000
    326          0.604364        2.333413   1.000000  -0.000000
    327          0.612594        2.341727   1.000000  -0.000000
    328          0.652351        2.350622   1.000001  -0.000000
    329          0.677031        2.358365   1.000004  -0.000000
    330          0.710335        2.371050   1.000037  -0.000000
    331          0.719567        2.384223   1.000063  -0.000000
    332          0.727474        2.395958   1.000098  -0.000000
    333          0.744932        2.406688   1.000252  -0.000000
    334          0.756283        2.415651   1.000447  -0.000000
    335          0.802460        2.419198   1.003404  -0.000000
    336          0.812895        2.436712   1.005018  -0.000000
    337          0.858565        2.441373   1.019434  -0.000000
    338          0.900986        2.452049   1.035317  -0.000000
    339          0.926040        2.467350   1.025649  -0.000000
    340          0.956489        2.476610   0.960088  -0.000000
    341          1.008795        2.489104   0.647660  -0.000000
    342          1.055577        2.496513   0.265455  -0.000000
    343          1.076484        2.503508   0.130263  -0.000000
    344          1.164855        2.519484  -0.032374  -0.000000
    345          1.170127        2.523408  -0.030394  -0.000000
    346          1.235829        2.535338  -0.005856  -0.000000
    347          1.269209        2.546477  -0.001597  -0.000000
    348          1.313963        2.569450  -0.000186  -0.000000
    349          1.333353        2.574376  -0.000064  -0.000000
    350          1.355108        2.580202  -0.000017  -0.000000
    351          1.398960        2.606539  -0.000001  -0.000000
    352          1.406350        2.632542  -0.000001  -0.000000
    353          1.459807        2.650254  -0.000000  -0.000000
    354          1.474248        2.662134  -0.000000  -0.000000
    355          1.492124        2.669171  -0.000000  -0.000000
    356          1.508385        2.676535  -0.000000  -0.000000
    357          1.566771        2.700029  -0.000000  -0.000000
    358          1.584055        2.730542  -0.000000  -0.000000
    359          1.601769        2.745897  -0.000000  -0.000000
    360          1.602498        2.764386  -0.000000  -0.000000
    361          1.627251        2.766058  -0.000000  -0.000000
    362          1.654584        2.790378  -0.000000  -0.000000
    363          1.700507        2.817934  -0.000000  -0.000000
    364          1.710448        2.824651  -0.000000  -0.000000
    365          1.737742        2.835417  -0.000000  -0.000000
    366          1.776570        2.845454  -0.000000  -0.000000
    367          1.790471        2.866799  -0.000000  -0.000000
    368          1.833038        2.883271  -0.000000  -0.000000
    369          1.851619        2.902785  -0.000000  -0.000000
    370          1.892758        2.916688  -0.000000  -0.000000
    371          1.908011        2.929450  -0.000000  -0.000000
    372          1.937527        2.974557  -0.000000  -0.000000
    373          1.971435        3.014674  -0.000000  -0.000000
    374          1.997742        3.061468  -0.000000  -0.000000
    375          2.011026        3.065809  -0.000000  -0.000000
    376          2.096746        3.102444  -0.000000  -0.000000
 
  0.2500000E+00  0.6721729E-20  0.0000000E+00  0.1250000E+00
      1        -42.758954      -43.295069   1.000000   1.000000
      2        -42.742853      -43.243631   1.000000   1.000000
      3        -42.730085      -43.232760   1.000000   1.000000
      4        -42.723011      -43.215584   1.000000   1.000000
      5        -42.697351      -43.208118   1.000000   1.000000
      6        -42.682517      -43.199426   1.000000   1.000000
      7        -42.659678      -43.182815   1.000000   1.000000
      8        -42.657815      -43.155358   1.000000   1.000000
      9        -42.646672      -43.147712   1.000000   1.000000
     10        -42.263539      -43.136986   1.000000   1.000000
     11        -42.192670      -43.126202   1.000000   1.000000
     12        -42.136701      -43.117854   1.000000   1.000000
     13        -41.930813      -43.112551   1.000000   1.000000
     14        -41.899004      -43.108497   1.000000   1.000000
     15        -41.859360      -43.102791   1.000000   1.000000
     16        -41.854287      -43.092829   1.000000   1.000000
     17        -41.837369      -43.085678   1.000000   1.000000
     18        -41.832592      -43.078759   1.000000   1.000000
     19        -41.813247      -43.066373   1.000000   1.000000
     20        -41.798785      -43.034394   1.000000   1.000000
     21        -41.781187      -43.012922   1.000000   1.000000
     22        -41.752696      -42.959160   1.000000   1.000000
     23        -41.744623      -42.911893   1.000000   1.000000
     24        -41.737357      -42.911074   1.000000   1.000000
     25        -41.736413      -42.883217   1.000000   1.000000
     26        -41.733589      -42.822829   1.000000   1.000000
     27        -41.716603      -42.761184   1.000000   1.000000
     28        -41.707341      -42.724189   1.000000   1.000000
     29        -41.696512      -42.659926   1.000000   1.000000
     30        -41.696302      -42.561886   1.000000   1.000000
     31        -41.680067      -41.595307   1.000000   1.000000
     32        -41.678721      -41.496790   1.000000   1.000000
     33        -41.667699      -41.425438   1.000000   1.000000
     34        -40.468272      -40.391178   1.000000   1.000000
     35        -40.394666      -40.384107   1.000000   1.000000
     36        -40.330351      -40.080467   1.000000   1.000000
     37        -40.301063      -39.954767   1.000000   1.000000
     38        -40.283845      -39.874428   1.000000   1.000000
     39        -40.257537      -39.862713   1.000000   1.000000
     40        -40.239662      -39.744947   1.000000   1.000000
     41        -40.143701      -39.680961   1.000000   1.000000
     42        -40.134896      -39.583375   1.000000   1.000000
     43        -15.321554      -15.316020   1.000000   1.000000
     44        -15.293125      -15.292037   1.000000   1.000000
     45        -15.285797      -15.285900   1.000000   1.000000
     46        -15.257986      -15.246031   1.000000   1.000000
     47        -15.242517      -15.228866   1.000000   1.000000
     48         -7.339029       -7.369180   1.000000   1.000000
     49         -7.013015       -6.917442   1.000000   1.000000
     50         -6.092971       -5.941754   1.000000   1.000000
     51         -5.976745       -5.853487   1.000000   1.000000
     52         -5.194689       -4.984421   1.000000   1.000000
     53         -5.081299       -4.912242   1.000000   1.000000
     54         -5.038847       -4.887972   1.000000   1.000000
     55         -4.801794       -4.528858   1.000000   1.000000
     56         -4.489602       -4.181248   1.000000   1.000000
     57         -4.460055       -4.147275   1.000000   1.000000
     58         -4.416745       -4.124519   1.000000   1.000000
     59         -4.339379       -4.089931   1.000000   1.000000
     60         -4.321966       -4.067368   1.000000   1.000000
     61         -4.218392       -3.830300   1.000000   1.000000
     62         -4.077318       -3.574187   1.000000   1.000000
     63         -3.994042       -3.401977   1.000000   1.000000
     64         -3.927507       -3.331073   1.000000   1.000000
     65         -3.923199       -3.294446   1.000000   1.000000
     66         -3.839914       -3.281791   1.000000   1.000000
     67         -3.810190       -3.240390   1.000000   1.000000
     68         -3.718304       -3.210477   1.000000   1.000000
     69         -3.709497       -3.166346   1.000000   1.000000
     70         -3.692418       -3.100471   1.000000   1.000000
     71         -3.674931       -2.852269   1.000000   1.000000
     72         -3.622388       -2.825308   1.000000   1.000000
     73         -3.592446       -2.770908   1.000000   1.000000
     74         -3.517313       -2.731323   1.000000   1.000000
     75         -3.486650       -2.623327   1.000000   1.000000
     76         -3.472018       -2.589115   1.000000   1.000000
     77         -3.466684       -2.557649   1.000000   1.000000
     78         -3.420452       -2.542862   1.000000   1.000000
     79         -3.403781       -2.501069   1.000000   1.000000
     80         -3.378948       -2.484799   1.000000   1.000000
     81         -3.341722       -2.438600   1.000000   1.000000
     82         -3.305862       -2.409214   1.000000   1.000000
     83         -3.245692       -2.385901   1.000000   1.000000
     84         -3.235547       -2.330658   1.000000   1.000000
     85         -3.223975       -2.312603   1.000000   1.000000
     86         -3.202192       -2.255544   1.000000   1.000000
     87         -3.184730       -2.225606   1.000000   1.000000