       N       E                     dE             d eps       ncg     rms          rms(c)
DAV:   1    -0.513449287121E+03   -0.51345E+03   -0.27909E-01 19664   0.304E+00
DAV:   2    -0.513452671714E+03   -0.33846E-02   -0.33846E-02 20080   0.426E-01
DAV:   3    -0.513452867461E+03   -0.19575E-03   -0.19575E-03 24048   0.498E-02
DAV:   4    -0.513452871917E+03   -0.44552E-05   -0.44552E-05 20592   0.104E-02
DAV:   5    -0.513452872181E+03   -0.26429E-06   -0.26428E-06 12352   0.244E-03
   1 F= -.51345287E+03 E0= -.51345165E+03  d E =-.366371E-02  mag=   104.1377
