 vasp.6.3.2 27Jun22 (build Mar 15 2023 15:45:48) complex                        
  
 executed on             LinuxIFC date 2025.02.10  23:50:09
 running on    4 total cores
 distrk:  each k-point on    1 cores,    4 groups
 distr:  one band on NCORE=   1 cores,    1 groups


--------------------------------------------------------------------------------------------------------


 INCAR:
   SYSTEM = Fe2O3
   ISTART = 1
   ICHARG = 11
   LWAVE = .TRUE.
   LCHARG = .TRUE.
   LVHAR = .FALSE.
   LELF = .FALSE.
   LORBIT = 11
   ISMEAR = 1            (Gaussian smearing
   SIGMA = 0.1        (Smearing value in eV
   NELM = 100           (Max electronic SCF steps)
   NELMIN = 5           (Min electronic SCF steps)
   EDIFF = 1E-6        (SCF energy convergence
   GGA = PE
   LREAL = Auto
   PREC = Accurate
   ENCUT = 450
   NSW = 0         (Max electronic SCF steps)
   IBRION = 2           (Algorithm: 0-MD
   POTIM = 0.01
   ISIF = 2
   EDIFFG = -5E-2
   ALGO = Normal
   ISPIN = 2
   NCORE = 4
   KPAR = 8
   LDIPOL = .TRUE.
   IDIPOL = 3
   AMIX = 0.05
   BMIX = 0.0001
   IMIX = 4

 POTCAR:    PAW_PBE Fe 06Sep2000                  
 POTCAR:    PAW_PBE Cr_pv 02Aug2007               
 POTCAR:    PAW_PBE Pb_d 06Sep2000                
 -----------------------------------------------------------------------------
|                                                                             |
|           W    W    AA    RRRRR   N    N  II  N    N   GGGG   !!!           |
|           W    W   A  A   R    R  NN   N  II  NN   N  G    G  !!!           |
|           W    W  A    A  R    R  N N  N  II  N N  N  G       !!!           |
|           W WW W  AAAAAA  RRRRR   N  N N  II  N  N N  G  GGG   !            |
|           WW  WW  A    A  R   R   N   NN  II  N   NN  G    G                |
|           W    W  A    A  R    R  N    N  II  N    N   GGGG   !!!           |
|                                                                             |
|     You use a magnetic or noncollinear calculation, but did not specify     |
|     the initial magnetic moment with the MAGMOM tag. Note that a            |
|     default of 1 will be used for all atoms. This ferromagnetic setup       |
|     may break the symmetry of the crystal, in particular it may rule        |
|     out finding an antiferromagnetic solution. Thence, we recommend         |
|     setting the initial magnetic moment manually or verifying carefully     |
|     that this magnetic setup is desired.                                    |
|                                                                             |
 -----------------------------------------------------------------------------

 POTCAR:    PAW_PBE Fe 06Sep2000                  
   VRHFIN =Fe:  d7 s1                                                                               
   LEXCH  = PE                                                                                      
   EATOM  =   594.3153 eV,   43.6809 Ry                                                             
                                                                                                    
   TITEL  = PAW_PBE Fe 06Sep2000                                                                    
   LULTRA =        F    use ultrasoft PP ?                                                          
   IUNSCR =        1    unscreen: 0-lin 1-nonlin 2-no                                               
   RPACOR =    2.000    partial core radius                                                         
   POMASS =   55.847; ZVAL   =    8.000    mass and valenz                                          
   RCORE  =    2.300    outmost cutoff radius                                                       
   RWIGS  =    2.460; RWIGS  =    1.302    wigner-seitz radius (au A)                               
   ENMAX  =  267.882; ENMIN  =  200.911 eV                                                          
   RCLOC  =    1.701    cutoff for local pot                                                        
   LCOR   =        T    correct aug charges                                                         
   LPAW   =        T    paw PP                                                                      
   EAUG   =  511.368                                                                                
   DEXC   =    0.000                                                                                
   RMAX   =    2.356    core radius for proj-oper                                                   
   RAUG   =    1.300    factor for augmentation sphere                                              
   RDEP   =    2.442    radius for radial grids                                                     
   RDEPT  =    1.890    core radius for aug-charge                                                  
                                                                                                    
   Atomic configuration                                                                             
    9 entries                                                                                       
     n  l   j            E        occ.                                                              
     1  0  0.50     -6993.8440   2.0000                                                             
     2  0  0.50      -814.6047   2.0000                                                             
     2  1  1.50      -693.3689   6.0000                                                             
     3  0  0.50       -89.4732   2.0000                                                             
     3  1  1.50       -55.6373   6.0000                                                             
     3  2  2.50        -3.8151   7.0000                                                             
     4  0  0.50        -4.2551   1.0000                                                             
     4  1  1.50        -3.4015   0.0000                                                             
     4  3  2.50        -1.3606   0.0000                                                             
   Description                                                                                      
     l       E           TYP  RCUT    TYP  RCUT                                                     
     2     -3.8151135     23  2.300                                                                 
     2     -5.1756961     23  2.300                                                                 
     0     -4.2550963     23  2.300                                                                 
     0      7.2035603     23  2.300                                                                 
     1     -2.7211652     23  2.300                                                                 
     1     18.4316424     23  2.300                                                                 
  local pseudopotential read in
  partial core-charges read in
  partial kinetic energy density read in
  atomic valenz-charges read in
  non local Contribution for L=           2  read in
    real space projection operators read in
  non local Contribution for L=           2  read in
    real space projection operators read in
  non local Contribution for L=           0  read in
    real space projection operators read in
  non local Contribution for L=           0  read in
    real space projection operators read in
  non local Contribution for L=           1  read in
    real space projection operators read in
  non local Contribution for L=           1  read in
    real space projection operators read in
    PAW grid and wavefunctions read in
 
   number of l-projection  operators is LMAX  =           6
   number of lm-projection operators is LMMAX =          18
 
 POTCAR:    PAW_PBE Cr_pv 02Aug2007               
   VRHFIN =Cr : p6d5s1                                                                              
   LEXCH  = PE                                                                                      
   EATOM  =  1647.9177 eV,  121.1185 Ry                                                             
                                                                                                    
   TITEL  = PAW_PBE Cr_pv 02Aug2007                                                                 
   LULTRA =        F    use ultrasoft PP ?                                                          
   IUNSCR =        1    unscreen: 0-lin 1-nonlin 2-no                                               
   RPACOR =    2.080    partial core radius                                                         
   POMASS =   51.996; ZVAL   =   12.000    mass and valenz                                          
   RCORE  =    2.300    outmost cutoff radius                                                       
   RWIGS  =    2.500; RWIGS  =    1.323    wigner-seitz radius (au A)                               
   ENMAX  =  265.681; ENMIN  =  199.261 eV                                                          
   ICORE  =        3    local potential                                                             
   LCOR   =        T    correct aug charges                                                         
   LPAW   =        T    paw PP                                                                      
   EAUG   =  519.424                                                                                
   DEXC   =    0.000                                                                                
   RMAX   =    2.356    core radius for proj-oper                                                   
   RAUG   =    1.300    factor for augmentation sphere                                              
   RDEP   =    2.447    radius for radial grids                                                     
   RDEPT  =    1.882    core radius for aug-charge                                                  
                                                                                                    
   Atomic configuration                                                                             
    8 entries                                                                                       
     n  l   j            E        occ.                                                              
     1  0  0.50     -5880.4963   2.0000                                                             
     2  0  0.50      -667.0865   2.0000                                                             
     2  1  1.50      -560.6250   6.0000                                                             
     3  0  0.50       -73.9860   2.0000                                                             
     3  1  1.50       -45.4378   6.0000                                                             
     3  2  2.50        -2.9137   5.0000                                                             
     4  0  0.50        -4.0071   1.0000                                                             
     4  3  2.50        -1.3606   0.0000                                                             
   Description                                                                                      
     l       E           TYP  RCUT    TYP  RCUT                                                     
     1    -45.4377911     23  2.000                                                                 
     1      1.3605826     23  2.000                                                                 
     2     -2.9136672     23  2.300                                                                 
     2     -4.2742498     23  2.300                                                                 
     0     -4.0071320     23  2.300                                                                 
     0      9.4498803     23  2.300                                                                 
     3      2.7211652     23  2.300                                                                 
  local pseudopotential read in
  partial core-charges read in
  partial kinetic energy density read in
  atomic valenz-charges read in
  non local Contribution for L=           1  read in
    real space projection operators read in
  non local Contribution for L=           1  read in
    real space projection operators read in
  non local Contribution for L=           2  read in
    real space projection operators read in
  non local Contribution for L=           2  read in
    real space projection operators read in
  non local Contribution for L=           0  read in
    real space projection operators read in
  non local Contribution for L=           0  read in
    real space projection operators read in
    PAW grid and wavefunctions read in
 
   number of l-projection  operators is LMAX  =           6
   number of lm-projection operators is LMMAX =          18
 
 POTCAR:    PAW_PBE Pb_d 06Sep2000                
   VRHFIN =Pb:                                                                                      
   LEXCH  = PE                                                                                      
   EATOM  =  1661.6185 eV,  122.1255 Ry                                                             
                                                                                                    
   TITEL  = PAW_PBE Pb_d 06Sep2000                                                                  
   LULTRA =        F    use ultrasoft PP ?                                                          
   IUNSCR =        1    unscreen: 0-lin 1-nonlin 2-no                                               
   RPACOR =    2.200    partial core radius                                                         
   POMASS =  207.200; ZVAL   =   14.000    mass and valenz                                          
   RCORE  =    2.500    outmost cutoff radius                                                       
   RWIGS  =    3.260; RWIGS  =    1.725    wigner-seitz radius (au A)                               
   ENMAX  =  237.835; ENMIN  =  178.376 eV                                                          
   ICORE  =        3    local potential                                                             
   LCOR   =        T    correct aug charges                                                         
   LPAW   =        T    paw PP                                                                      
   EAUG   =  391.914                                                                                
   DEXC   =    0.000                                                                                
   RMAX   =    2.565    core radius for proj-oper                                                   
   RAUG   =    1.300    factor for augmentation sphere                                              
   RDEP   =    2.643    radius for radial grids                                                     
   RDEPT  =    2.092    core radius for aug-charge                                                  
                                                                                                    
   Atomic configuration                                                                             
   16 entries                                                                                       
     n  l   j            E        occ.                                                              
     1  0  0.50    -88091.8466   2.0000                                                             
     2  0  0.50    -15753.4197   2.0000                                                             
     2  1  1.50    -13508.1797   6.0000                                                             
     3  0  0.50     -3781.7194   2.0000                                                             
     3  1  1.50     -3138.2529   6.0000                                                             
     3  2  2.50     -2483.2977  10.0000                                                             
     4  0  0.50      -856.2895   2.0000                                                             
     4  1  1.50      -645.4942   6.0000                                                             
     4  2  2.50      -401.8768  10.0000                                                             
     4  3  3.50      -132.9059  14.0000                                                             
     5  0  0.50      -144.0950   2.0000                                                             
     5  1  1.50       -85.7879   6.0000                                                             
     5  2  2.50       -21.1769  10.0000                                                             
     6  0  0.50       -12.0372   2.0000                                                             
     6  1  1.50        -3.4971   2.0000                                                             
     5  3  2.50        -2.7212   0.0000                                                             
   Description                                                                                      
     l       E           TYP  RCUT    TYP  RCUT                                                     
     2    -21.1768523     23  2.500                                                                 
     2      1.3605826     23  2.500                                                                 
     0    -12.0371562     23  2.500                                                                 
     0     13.6058260     23  2.500                                                                 
     1     -3.4971339     23  2.500                                                                 
     1     13.6058260     23  2.500                                                                 
     3     -1.3605826      7  2.500                                                                 
  local pseudopotential read in
  partial core-charges read in
  partial kinetic energy density read in
  atomic valenz-charges read in
  non local Contribution for L=           2  read in
    real space projection operators read in
  non local Contribution for L=           2  read in
    real space projection operators read in
  non local Contribution for L=           0  read in
    real space projection operators read in
  non local Contribution for L=           0  read in
    real space projection operators read in
  non local Contribution for L=           1  read in
    real space projection operators read in
  non local Contribution for L=           1  read in
    real space projection operators read in
    PAW grid and wavefunctions read in
 
   number of l-projection  operators is LMAX  =           6
   number of lm-projection operators is LMMAX =          18
 
 Optimization of the real space projectors (new method)

 maximal supplied QI-value         = 16.25
 optimisation between [QCUT,QGAM] = [ 10.73, 21.61] = [ 32.22,130.83] Ry 
 Optimized for a Real-space Cutoff    1.42 Angstroem

   l    n(q)    QCUT    max X(q) W(low)/X(q) W(high)/X(q)  e(spline) 
   2      8    10.726    80.901    0.24E-03    0.41E-03    0.22E-06
   2      8    10.726    75.754    0.24E-03    0.41E-03    0.23E-06
   0      9    10.726    58.752    0.21E-03    0.17E-03    0.42E-07
   0      9    10.726    30.679    0.19E-03    0.16E-03    0.39E-07
   1      9    10.726    17.977    0.20E-03    0.14E-03    0.16E-06
   1      9    10.726    13.559    0.17E-03    0.11E-03    0.13E-06
 Optimization of the real space projectors (new method)

 maximal supplied QI-value         = 16.25
 optimisation between [QCUT,QGAM] = [ 10.73, 21.61] = [ 32.22,130.83] Ry 
 Optimized for a Real-space Cutoff    1.51 Angstroem

   l    n(q)    QCUT    max X(q) W(low)/X(q) W(high)/X(q)  e(spline) 
   1      9    10.726     3.262    0.86E-04    0.42E-04    0.11E-06
   1      9    10.726     5.741    0.19E-03    0.70E-04    0.20E-06
   2      9    10.726    60.438    0.11E-03    0.51E-04    0.13E-06
   2      9    10.726    55.380    0.12E-03    0.51E-04    0.13E-06
   0     10    10.726    80.273    0.42E-04    0.15E-05    0.77E-07
   0     10    10.726    36.654    0.34E-04    0.84E-06    0.69E-07
 Optimization of the real space projectors (new method)

 maximal supplied QI-value         = 15.12
 optimisation between [QCUT,QGAM] = [ 10.73, 21.62] = [ 32.26,130.87] Ry 
 Optimized for a Real-space Cutoff    1.42 Angstroem

   l    n(q)    QCUT    max X(q) W(low)/X(q) W(high)/X(q)  e(spline) 
   2      8    10.734     3.846    0.11E-03    0.12E-04    0.36E-07
   2      8    10.734     8.593    0.24E-03    0.21E-03    0.13E-06
   0      9    10.734    20.082    0.65E-04    0.10E-03    0.71E-07
   0      9    10.734     8.597    0.91E-04    0.14E-03    0.10E-06
   1      9    10.734    33.223    0.24E-03    0.75E-04    0.13E-06
   1      9    10.734    15.899    0.21E-03    0.70E-04    0.12E-06
  PAW_PBE Fe 06Sep2000                  :
 energy of atom  1       EATOM= -594.3153
 kinetic energy error for atom=    0.0034 (will be added to EATOM!!)
  PAW_PBE Cr_pv 02Aug2007               :
 energy of atom  2       EATOM=-1647.9177
 kinetic energy error for atom=    0.0115 (will be added to EATOM!!)
  PAW_PBE Pb_d 06Sep2000                :
 energy of atom  3       EATOM=-1661.6185
 kinetic energy error for atom=    0.0063 (will be added to EATOM!!)
 
 
 POSCAR: Generated by VASPKIT code
  positions in direct lattice
  velocities in cartesian coordinates
 exchange correlation table for  LEXCH =        8
   RHO(1)=    0.500       N(1)  =     2000
   RHO(2)=  100.500       N(2)  =     4000

 VTST: version 4.2, (08/11/21)

 CHAIN: initializing optimizer
 
 OPT: Using VASP Conjugate-Gradient optimizer
 CHAIN: Read ICHAIN            0
 
 POSCAR: Generated by VASPKIT code
  positions in direct lattice
  velocities in cartesian coordinates
 


--------------------------------------------------------------------------------------------------------


 ion  position               nearest neighbor table
   1  0.001  1.000  0.243-  49 2.45  13 2.45  39 2.45  45 2.46   2 2.46  36 2.47  11 2.48   5 2.49
                            15 2.80  52 2.83   4 2.84  35 2.84   6 2.85  50 2.86
   2  0.166  0.166  0.304-  15 2.41  22 2.42  18 2.43   1 2.46  58 2.47  50 2.47   8 2.48   6 2.48
                            11 2.82   5 2.84   3 2.86   7 2.86  36 2.86
   3  0.501  0.167  0.308-  18 2.42  56 2.49  58 2.50  50 2.52   4 2.52   8 2.52  51 2.53  60 2.53
                             9 2.81  53 2.82   5 2.84   2 2.86  38 2.95  64 3.24
   4  0.668  0.001  0.243-  39 2.44  38 2.45  49 2.45  47 2.46  53 2.47   5 2.47  13 2.48   3 2.52
                            54 2.78  51 2.82  61 2.84   1 2.84  50 2.84  56 2.84
   5  0.834  0.169  0.304-  22 2.39  15 2.39  51 2.46  56 2.47   6 2.47   4 2.47  60 2.48   1 2.49
                             2 2.84   3 2.84  10 2.84  39 2.85  13 2.87
   6  0.000  0.335  0.242-  36 2.46  39 2.46  40 2.46  10 2.46  43 2.47   5 2.47   7 2.47   2 2.48
                            22 2.79  52 2.82  62 2.83  51 2.84   1 2.85   8 2.85
   7  0.166  0.503  0.304-  27 2.40  58 2.42  22 2.43  30 2.44  52 2.44  12 2.45   6 2.47   8 2.49
                            11 2.82  10 2.83   9 2.86   2 2.86  40 2.87
   8  0.335  0.333  0.243-  40 2.45  38 2.45   9 2.46  36 2.46  41 2.46   2 2.48   7 2.49   3 2.52
                            12 2.83  63 2.83  50 2.84  51 2.84   6 2.85  58 2.89
   9  0.502  0.497  0.303-  30 2.40  33 2.41   8 2.46  51 2.46  12 2.48  60 2.48  58 2.49  54 2.49
                             3 2.81  41 2.84  10 2.85   7 2.86  53 2.88
  10  0.835  0.504  0.302-  27 2.39  33 2.43  22 2.44  60 2.45  52 2.46   6 2.46  54 2.47  51 2.48
                            13 2.79  43 2.82   7 2.83   5 2.84   9 2.85
  11  0.168  0.834  0.304-  18 2.40  27 2.43  15 2.46  50 2.46  30 2.47  52 2.47   1 2.48  12 2.49
                            53 2.81   2 2.82   7 2.82  13 2.82  45 2.88
  12  0.333  0.666  0.243-  41 2.45  53 2.45  40 2.45   7 2.45  45 2.46  47 2.47   9 2.48  11 2.49
                            30 2.81  52 2.81   8 2.83  50 2.83  54 2.83  46 2.84
  13  0.837  0.832  0.303-  56 2.38  27 2.40  15 2.44  54 2.44  33 2.45   1 2.45  52 2.46   4 2.48
                            10 2.79  11 2.82  49 2.83   5 2.87  53 2.91
  14  0.001  0.001  0.002-  20 2.46  34 2.46  28 2.46  16 2.48  26 2.83  21 2.83  35 2.84  17 2.85
                            55 2.85
  15  0.997  0.006  0.361-   5 2.39   2 2.41  13 2.44  11 2.46  56 2.74  22 2.78   1 2.80  18 2.84
                            27 2.89
  16  0.168  0.170  0.063-  63 2.44  37 2.45  57 2.45  17 2.46  35 2.46  62 2.46  21 2.46  14 2.48
                            23 2.80  36 2.82  28 2.85  20 2.86  19 2.87
  17  0.335  0.003  0.003-  19 2.45  16 2.46  31 2.46  28 2.46  57 2.81  37 2.82  55 2.83  14 2.85
                            29 2.86
  18  0.330  0.998  0.363-  11 2.40   3 2.42   2 2.43  53 2.44  64 2.78  50 2.81  30 2.84  15 2.84
                            58 2.90  56 2.95
  19  0.505  0.169  0.061-  59 2.43  42 2.45  17 2.45  61 2.46  63 2.47  55 2.47  57 2.48  37 2.48
                            20 2.80  24 2.81  31 2.83  38 2.87  16 2.87
  20  0.833  0.167  0.062-  59 2.43  14 2.46  61 2.46  42 2.46  21 2.46  62 2.46  35 2.46  55 2.50
                            19 2.80  34 2.81  25 2.85  39 2.85  16 2.86
  21  0.000  0.335  0.002-  23 2.46  25 2.46  20 2.46  16 2.46  59 2.81  26 2.83  14 2.83  57 2.83
                            62 2.84
  22  0.999  0.333  0.361-   5 2.39   2 2.42   7 2.43  10 2.44  60 2.76  58 2.78  15 2.78   6 2.79
                            27 2.83
  23  0.168  0.499  0.063-  62 2.45  21 2.46  57 2.46  46 2.46  44 2.46  63 2.47  29 2.47  26 2.48
                            16 2.80  40 2.82  24 2.85  25 2.85  28 2.85
  24  0.501  0.499  0.062-  59 2.43  42 2.45  63 2.45  29 2.46  46 2.46  32 2.47  57 2.47  48 2.47
                            19 2.81  25 2.84  23 2.85  41 2.86  31 2.86
  25  0.834  0.502  0.062-  59 2.42  62 2.45  32 2.45  44 2.46  48 2.46  26 2.46  21 2.46  42 2.46
                            34 2.83  24 2.84  43 2.84  23 2.85  20 2.85
  26  0.001  0.668  0.002-  25 2.46  28 2.46  23 2.48  34 2.48  21 2.83  14 2.83  29 2.84  44 2.85
                            32 2.85
  27  0.999  0.665  0.361-  10 2.39  13 2.40   7 2.40  11 2.43  52 2.79  22 2.83  33 2.86  15 2.89
                            30 2.92
  28  0.168  0.835  0.062-  35 2.45  37 2.46  44 2.46  46 2.46  17 2.46  29 2.46  26 2.46  14 2.46
                            45 2.83  16 2.85  31 2.85  23 2.85  34 2.86
  29  0.334  0.667  0.002-  24 2.46  28 2.46  23 2.47  31 2.47  57 2.83  46 2.83  32 2.84  26 2.84
                            17 2.86
  30  0.341  0.664  0.361-   9 2.40  53 2.42   7 2.44  11 2.47  33 2.76  58 2.76  12 2.81  18 2.84
                            27 2.92
  31  0.502  0.836  0.062-  61 2.44  55 2.45  37 2.45  17 2.46  48 2.46  32 2.47  46 2.47  29 2.47
                            34 2.83  19 2.83  47 2.85  28 2.85  24 2.86
  32  0.668  0.667  0.002-  25 2.45  24 2.47  31 2.47  34 2.47  55 2.80  59 2.81  29 2.84  26 2.85
                            48 2.85
  33  0.664  0.667  0.360-   9 2.41  10 2.43  53 2.44  13 2.45  56 2.75  30 2.76  60 2.76  54 2.76
                            27 2.86
  34  0.833  0.836  0.062-  61 2.44  35 2.46  48 2.46  14 2.46  55 2.46  32 2.47  44 2.47  26 2.48
                            20 2.81  31 2.83  25 2.83  49 2.85  28 2.86
  35  0.001  0.001  0.122-  28 2.45  34 2.46  36 2.46  39 2.46  45 2.46  16 2.46  20 2.46  49 2.47
                            44 2.83  14 2.84  62 2.84   1 2.84  37 2.85  61 2.85
  36  0.167  0.168  0.182-  35 2.46   8 2.46   6 2.46  63 2.46  37 2.46   1 2.47  62 2.47  50 2.49
                            40 2.81  16 2.82  45 2.83  39 2.84  38 2.86   2 2.86
  37  0.335  0.002  0.122-  16 2.45  31 2.45  28 2.46  38 2.46  45 2.46  47 2.46  36 2.46  19 2.48
                            63 2.81  17 2.82  61 2.84  35 2.85  46 2.85  50 2.87
  38  0.502  0.167  0.183-  63 2.44  51 2.44   4 2.45   8 2.45  61 2.46  42 2.46  37 2.46  50 2.47
                            47 2.82  41 2.84  39 2.84  36 2.86  19 2.87   3 2.95
  39  0.834  0.166  0.183-  51 2.44   4 2.44   1 2.45   6 2.46  62 2.46  35 2.46  61 2.46  42 2.47
                            49 2.82  38 2.84  36 2.84  20 2.85   5 2.85  43 2.86
  40  0.170  0.499  0.182-  63 2.45  12 2.45   8 2.45  46 2.45   6 2.46  52 2.46  62 2.46  44 2.47
                            36 2.81  23 2.82  41 2.84  45 2.86   7 2.87  43 2.89
  41  0.502  0.501  0.183-  51 2.45  12 2.45   8 2.46  48 2.46  42 2.46  63 2.47  54 2.47  46 2.47
                            43 2.81  38 2.84  40 2.84   9 2.84  47 2.84  24 2.86
  42  0.667  0.334  0.122-  19 2.45  24 2.45  38 2.46  20 2.46  43 2.46  41 2.46  25 2.46  39 2.47
                            59 2.81  62 2.82  63 2.82  51 2.83  61 2.84  48 2.84
  43  0.831  0.503  0.183-  48 2.44  51 2.45  42 2.46   6 2.47  62 2.47  44 2.47  52 2.47  54 2.48
                            41 2.81  49 2.82  10 2.82  25 2.84  39 2.86  40 2.89
  44  0.001  0.668  0.123-  25 2.46  49 2.46  28 2.46  45 2.46  23 2.46  43 2.47  40 2.47  34 2.47
                            52 2.82  62 2.83  35 2.83  46 2.84  26 2.85  48 2.85
  45  0.169  0.835  0.182-  52 2.45  50 2.46   1 2.46  46 2.46  35 2.46  37 2.46  12 2.46  44 2.46
                            47 2.82  36 2.83  28 2.83  49 2.85  40 2.86  11 2.88
  46  0.334  0.667  0.122-  40 2.45  23 2.46  28 2.46  45 2.46  24 2.46  47 2.46  31 2.47  41 2.47
                            29 2.83  48 2.84  12 2.84  44 2.84  63 2.84  37 2.85
  47  0.500  0.835  0.183-  54 2.43  50 2.44  61 2.45   4 2.46  37 2.46  48 2.46  46 2.46  12 2.47
                            53 2.82  38 2.82  45 2.82  41 2.84  31 2.85  49 2.86
  48  0.667  0.668  0.123-  43 2.44  25 2.46  31 2.46  41 2.46  34 2.46  49 2.46  47 2.46  24 2.47
                            61 2.82  46 2.84  42 2.84  54 2.85  32 2.85  44 2.85
  49  0.835  0.834  0.183-   1 2.45  54 2.45   4 2.45  44 2.46  52 2.46  48 2.46  61 2.46  35 2.47
                            43 2.82  39 2.82  13 2.83  34 2.85  45 2.85  47 2.86
  50  0.336  0.999  0.244-  53 2.39  47 2.44  45 2.46  11 2.46   2 2.47  38 2.47  36 2.49   3 2.52
                            18 2.81  12 2.83   4 2.84   8 2.84   1 2.86  37 2.87
  51  0.668  0.333  0.242-  38 2.44  39 2.44  41 2.45  43 2.45   5 2.46   9 2.46  10 2.48   3 2.53
                             4 2.82  42 2.83   6 2.84   8 2.84  54 2.90  60 2.94
  52  0.004  0.667  0.242-   7 2.44  45 2.45  10 2.46  40 2.46  49 2.46  13 2.46  43 2.47  11 2.47
                            27 2.79  12 2.81  44 2.82   6 2.82   1 2.83  54 2.90
  53  0.497  0.836  0.302-  50 2.39  30 2.42  54 2.43  18 2.44  33 2.44  12 2.45   4 2.47  56 2.47
                            11 2.81   3 2.82  47 2.82   9 2.88  13 2.91
  54  0.665  0.674  0.243-  53 2.43  47 2.43  13 2.44  49 2.45  41 2.47  10 2.47  43 2.48   9 2.49
                            33 2.76   4 2.78  12 2.83  48 2.85  52 2.90  51 2.90
  55  0.666  0.997  0.000-  31 2.45  34 2.46  19 2.47  20 2.50  32 2.80  17 2.83  14 2.85  61 2.89
                            59 2.89
  56  0.676  0.990  0.363-  13 2.38   5 2.47  53 2.47   3 2.49  15 2.74  33 2.75   4 2.84  64 2.84
                            18 2.95  60 3.00
  57  0.332  0.334  0.001-  16 2.45  23 2.46  24 2.47  19 2.48  17 2.81  29 2.83  21 2.83  63 2.86
                            59 2.89
  58  0.324  0.339  0.365-   7 2.42   2 2.47   9 2.49   3 2.50  30 2.76  22 2.78  64 2.85   8 2.89
                            18 2.90  60 3.01
  59  0.670  0.337  0.003-  25 2.42  19 2.43  24 2.43  20 2.43  32 2.81  42 2.81  21 2.81  57 2.89
                            55 2.89
  60  0.676  0.343  0.367-  10 2.45   5 2.48   9 2.48   3 2.53  22 2.76  33 2.76  64 2.85  51 2.94
                            56 3.00  58 3.01
  61  0.667  1.000  0.122-  34 2.44  31 2.44  47 2.45  38 2.46  20 2.46  39 2.46  19 2.46  49 2.46
                            48 2.82   4 2.84  42 2.84  37 2.84  35 2.85  55 2.89
  62  0.998  0.335  0.122-  25 2.45  23 2.45  39 2.46  40 2.46  20 2.46  16 2.46  43 2.47  36 2.47
                            42 2.82  44 2.83   6 2.83  21 2.84  35 2.84  63 2.89
  63  0.337  0.332  0.123-  38 2.44  16 2.44  40 2.45  24 2.45  36 2.46  41 2.47  23 2.47  19 2.47
                            37 2.81  42 2.82   8 2.83  46 2.84  57 2.86  62 2.89
  64  0.499  0.159  0.445-  18 2.78  56 2.84  58 2.85  60 2.85   3 3.24
 
  Warning from LATTYP: Monoclinic adjustment (A1->A3, A2->A1, A3->A2)!
  LATTYP: Found a simple monoclinic cell.
 ALAT       =     8.4969997406
 B/A-ratio  =     2.7768624260
 C/A-ratio  =     1.0042014647
 COS(beta)  =    -0.0000611195
  
  Lattice vectors:
  
 A1 = (  -0.0005193328,   8.4969997247,   0.0000000000)
 A2 = (   0.0000000000,   0.0000000000,  23.5949993134)
 A3 = (   8.5326995850,   0.0000000000,   0.0000000000)


Analysis of symmetry for initial positions (statically):
=====================================================================
 Subroutine PRICEL returns:
 Original cell was already a primitive cell.
 

 Routine SETGRP: Setting up the symmetry group for a 
 simple monoclinic supercell.


 Subroutine GETGRP returns: Found  1 space group operations
 (whereof  1 operations were pure point group operations)
 out of a pool of  4 trial point group operations.


The static configuration has the point symmetry C_1 .


Analysis of symmetry for dynamics (positions and initial velocities):
=====================================================================
 Subroutine PRICEL returns:
 Original cell was already a primitive cell.
 

 Routine SETGRP: Setting up the symmetry group for a 
 simple monoclinic supercell.


 Subroutine GETGRP returns: Found  1 space group operations
 (whereof  1 operations were pure point group operations)
 out of a pool of  4 trial point group operations.


The dynamic configuration has the point symmetry C_1 .


Analysis of constrained symmetry for selective dynamics:
=====================================================================
 Subroutine PRICEL returns:
 Original cell was already a primitive cell.
 

 Routine SETGRP: Setting up the symmetry group for a 
 simple monoclinic supercell.


 Subroutine GETGRP returns: Found  1 space group operations
 (whereof  1 operations were pure point group operations)
 out of a pool of  4 trial point group operations.


The constrained configuration has the point symmetry C_1 .


Analysis of structural, dynamic, and magnetic symmetry:
=====================================================================
 Subroutine PRICEL returns:
 Original cell was already a primitive cell.
 

 Routine SETGRP: Setting up the symmetry group for a 
 simple monoclinic supercell.


 Subroutine GETGRP returns: Found  1 space group operations
 (whereof  1 operations were pure point group operations)
 out of a pool of  4 trial point group operations.


The overall configuration has the point symmetry C_1 .


 Subroutine INISYM returns: Found  1 space group operations
 (whereof  1 operations are pure point group operations),
 and found     1 'primitive' translations


----------------------------------------------------------------------------------------

                                     Primitive cell                                     

  volume of cell :    1710.6928

  direct lattice vectors                    reciprocal lattice vectors
     8.532699585  0.000000000  0.000000000     0.117196204  0.000007163  0.000000000
    -0.000519333  8.496999725  0.000000000     0.000000000  0.117688600  0.000000000
     0.000000000  0.000000000 23.594999313     0.000000000  0.000000000  0.042381862

  length of vectors
     8.532699585  8.496999741 23.594999313     0.117196204  0.117688600  0.042381862

  position of ions in fractional coordinates (direct lattice)
     0.000860000  0.999930000  0.242710000
     0.166267691  0.165756442  0.303695002
     0.501201454  0.166760794  0.307641665
     0.668220000  0.001070000  0.242720000
     0.833741158  0.169462716  0.303810895
     0.000440000  0.334970000  0.242400000
     0.166404622  0.502547766  0.303627397
     0.334690000  0.333050000  0.242670000
     0.501563014  0.497152137  0.303493044
     0.834950846  0.504239166  0.302406588
     0.167619191  0.834249669  0.304490062
     0.333420000  0.665550000  0.242610000
     0.837248309  0.832265438  0.303051234
     0.000640000  0.001190000  0.001990000
     0.996965102  0.005894555  0.361472968
     0.168430000  0.169620000  0.062690000
     0.334600000  0.002970000  0.002540000
     0.330277509  0.998134633  0.362723506
     0.504630000  0.168500000  0.061200000
     0.832720000  0.166700000  0.061930000
     0.000040000  0.334670000  0.002130000
     0.999142679  0.332801929  0.360592095
     0.167570000  0.498950000  0.062680000
     0.500990000  0.498960000  0.062060000
     0.833930000  0.502340000  0.062350000
     0.001210000  0.667850000  0.001880000
     0.998538159  0.665445007  0.360572147
     0.167920000  0.834620000  0.062280000
     0.334370000  0.666640000  0.002250000
     0.340664085  0.664097834  0.361463221
     0.501520000  0.835630000  0.062170000
     0.667530000  0.667050000  0.001750000
     0.663843973  0.666752930  0.360272991
     0.832930000  0.835840000  0.062350000
     0.001210000  0.000980000  0.122250000
     0.167000000  0.168110000  0.182390000
     0.334700000  0.002270000  0.121920000
     0.501740000  0.167160000  0.182630000
     0.834210000  0.166390000  0.182830000
     0.169640000  0.498680000  0.182090000
     0.502190000  0.500810000  0.183170000
     0.667410000  0.333950000  0.122330000
     0.831340000  0.502530000  0.182830000
     0.001320000  0.667950000  0.122530000
     0.168980000  0.835090000  0.182430000
     0.334460000  0.667030000  0.122230000
     0.499710000  0.835380000  0.182780000
     0.666980000  0.668400000  0.122590000
     0.834880000  0.834030000  0.182940000
     0.335580000  0.998630000  0.243530000
     0.668010000  0.332620000  0.242290000
     0.004480000  0.667390000  0.242170000
     0.496555194  0.835537559  0.302203302
     0.665210000  0.673510000  0.243270000
     0.666200000  0.996800000  0.000000000
     0.675933291  0.989530290  0.362990155
     0.332130000  0.333860000  0.001350000
     0.324076047  0.339302269  0.365122518
     0.670400000  0.336730000  0.003210000
     0.676463265  0.342725610  0.366671157
     0.667280000  0.999980000  0.122460000
     0.998060000  0.334950000  0.122350000
     0.336750000  0.332380000  0.122610000
     0.499088092  0.159368275  0.444879195

  ion indices of the primitive-cell ions
   primitive index   ion index
                 1           1
                 2           2
                 3           3
                 4           4
                 5           5
                 6           6
                 7           7
                 8           8
                 9           9
                10          10
                11          11
                12          12
                13          13
                14          14
                15          15
                16          16
                17          17
                18          18
                19          19
                20          20
                21          21
                22          22
                23          23
                24          24
                25          25
                26          26
                27          27
                28          28
                29          29
                30          30
                31          31
                32          32
                33          33
                34          34
                35          35
                36          36
                37          37
                38          38
                39          39
                40          40
                41          41
                42          42
                43          43
                44          44
                45          45
                46          46
                47          47
                48          48
                49          49
                50          50
                51          51
                52          52
                53          53
                54          54
                55          55
                56          56
                57          57
                58          58
                59          59
                60          60
                61          61
                62          62
                63          63
                64          64

----------------------------------------------------------------------------------------

 
 
 KPOINTS: K-Spacing Value to Generate K-Mesh: 0.03

Automatic generation of k-mesh.
 Grid dimensions read from file:
 generate k-points for:    4    4    1

 Generating k-lattice:

  Cartesian coordinates                     Fractional coordinates (reciprocal lattice)
     0.029299051  0.000001791  0.000000000     0.250000000  0.000000000  0.000000000
     0.000000000  0.029422150  0.000000000     0.000000000  0.250000000  0.000000000
     0.000000000  0.000000000  0.042381862     0.000000000  0.000000000  1.000000000

  Length of vectors
     0.029299051  0.029422150  0.042381862

  Shift w.r.t. Gamma in fractional coordinates (k-lattice)
     0.000000000  0.000000000  0.000000000

 
 Subroutine IBZKPT returns following result:
 ===========================================
 
 Found     10 irreducible k-points:
 
 Following reciprocal coordinates:
            Coordinates               Weight
  0.000000  0.000000  0.000000      1.000000
  0.250000  0.000000  0.000000      2.000000
  0.500000  0.000000  0.000000      1.000000
  0.000000  0.250000  0.000000      2.000000
  0.250000  0.250000  0.000000      2.000000
  0.500000  0.250000  0.000000      2.000000
 -0.250000  0.250000  0.000000      2.000000
  0.000000  0.500000  0.000000      1.000000
  0.250000  0.500000  0.000000      2.000000
  0.500000  0.500000  0.000000      1.000000
 
 Following cartesian coordinates:
            Coordinates               Weight
  0.000000  0.000000  0.000000      1.000000
  0.029299  0.000002  0.000000      2.000000
  0.058598  0.000004  0.000000      1.000000
  0.000000  0.029422  0.000000      2.000000
  0.029299  0.029424  0.000000      2.000000
  0.058598  0.029426  0.000000      2.000000
 -0.029299  0.029420  0.000000      2.000000
  0.000000  0.058844  0.000000      1.000000
  0.029299  0.058846  0.000000      2.000000
  0.058598  0.058848  0.000000      1.000000
 


--------------------------------------------------------------------------------------------------------




 Dimension of arrays:
   k-points           NKPTS =     10   k-points in BZ     NKDIM =     10   number of bands    NBANDS=    376
   number of dos      NEDOS =    301   number of ions     NIONS =     64
   non local maximal  LDIM  =      6   non local SUM 2l+1 LMDIM =     18
   total plane-waves  NPLWV = 604800
   max r-space proj   IRMAX =   5137   max aug-charges    IRDMAX=  18968
   dimension x,y,z NGX =    60 NGY =   60 NGZ =  168
   dimension x,y,z NGXF=   120 NGYF=  120 NGZF=  336
   support grid    NGXF=   120 NGYF=  120 NGZF=  336
   ions per type =              49  14   1
   NGX,Y,Z   is equivalent  to a cutoff of  11.69, 11.74, 11.84 a.u.
   NGXF,Y,Z  is equivalent  to a cutoff of  23.38, 23.48, 23.67 a.u.

 SYSTEM =  Fe2O3                                   
 POSCAR =  Generated by VASPKIT code               

 Startparameter for this run:
   NWRITE =      2    write-flag & timer
   PREC   = accura    normal or accurate (medium, high low for compatibility)
   ISTART =      1    job   : 0-new  1-cont  2-samecut
   ICHARG =     11    charge: 1-file 2-atom 10-const
   ISPIN  =      2    spin polarized calculation?
   LNONCOLLINEAR =      F non collinear calculations
   LSORBIT =      F    spin-orbit coupling
   INIWAV =      1    electr: 0-lowe 1-rand  2-diag
   LASPH  =      F    aspherical Exc in radial PAW
 Electronic Relaxation 1
   ENCUT  =  450.0 eV  33.07 Ry    5.75 a.u.  14.76 14.70 40.81*2*pi/ulx,y,z
   ENINI  =  450.0     initial cutoff
   ENAUG  =  519.4 eV  augmentation charge cutoff
   NELM   =    100;   NELMIN=  5; NELMDL=  0     # of ELM steps 
   EDIFF  = 0.1E-05   stopping-criterion for ELM
   LREAL  =      T    real-space projection
   NLSPLINE    = F    spline interpolate recip. space projectors
   LCOMPAT=      F    compatible to vasp.4.4
   GGA_COMPAT  = T    GGA compatible to vasp.4.4-vasp.4.6
   LMAXPAW     = -100 max onsite density
   LMAXMIX     =    2 max onsite mixed and CHGCAR
   VOSKOWN=      0    Vosko Wilk Nusair interpolation
   ROPT   =   -0.00025  -0.00025  -0.00025
 Ionic relaxation
   EDIFFG = -.5E-01   stopping-criterion for IOM
   NSW    =      0    number of steps for IOM
   NBLOCK =      1;   KBLOCK =      1    inner block; outer block 
   IBRION =     -1    ionic relax: 0-MD 1-quasi-New 2-CG
   NFREE  =      1    steps in history (QN), initial steepest desc. (CG)
   ISIF   =      2    stress and relaxation
   IWAVPR =     10    prediction:  0-non 1-charg 2-wave 3-comb
   ISYM   =      2    0-nonsym 1-usesym 2-fastsym
   LCORR  =      T    Harris-Foulkes like correction to forces

   POTIM  = 0.0100    time-step for ionic-motion
   TEIN   =    0.0    initial temperature
   TEBEG  =    0.0;   TEEND  =   0.0 temperature during run
   SMASS  =  -3.00    Nose mass-parameter (am)
   estimated Nose-frequenzy (Omega)   =  0.10E-29 period in steps = 0.63E+48 mass=  -0.166E-26a.u.
   SCALEE = 1.0000    scale energy and forces
   NPACO  =    256;   APACO  = 10.0  distance and # of slots for P.C.
   PSTRESS=    0.0 pullay stress

  Mass of Ions in am
   POMASS =  55.85 52.00207.20
  Ionic Valenz
   ZVAL   =   8.00 12.00 14.00
  Atomic Wigner-Seitz radii
   RWIGS  =  -1.00 -1.00 -1.00
  virtual crystal weights 
   VCA    =   1.00  1.00  1.00
   NELECT =     574.0000    total number of electrons
   NUPDOWN=      -1.0000    fix difference up-down

 DOS related values:
   EMIN   =  10.00;   EMAX   =-10.00  energy-range for DOS
   EFERMI =   0.00
   ISMEAR =     1;   SIGMA  =   0.10  broadening in eV -4-tet -1-fermi 0-gaus

 Electronic relaxation 2 (details)
   IALGO  =     38    algorithm
   LDIAG  =      T    sub-space diagonalisation (order eigenvalues)
   LSUBROT=      F    optimize rotation matrix (better conditioning)
   TURBO    =      0    0=normal 1=particle mesh
   IRESTART =      0    0=no restart 2=restart with 2 vectors
   NREBOOT  =      0    no. of reboots
   NMIN     =      0    reboot dimension
   EREF     =   0.00    reference energy to select bands
   IMIX   =      4    mixing-type and parameters
     AMIX     =   0.05;   BMIX     =  0.00
     AMIX_MAG =   0.20;   BMIX_MAG =  0.00
     AMIN     =   0.05
     WC   =   100.;   INIMIX=   1;  MIXPRE=   1;  MAXMIX= -45

 Intra band minimization:
   WEIMIN = 0.0000     energy-eigenvalue tresh-hold
   EBREAK =  0.66E-09  absolut break condition
   DEPER  =   0.30     relativ break condition  

   TIME   =   0.40     timestep for ELM

  volume/ion in A,a.u.               =      26.73       180.38
  Fermi-wavevector in a.u.,A,eV,Ry     =   1.137596  2.149745 17.607640  1.294125
  Thomas-Fermi vector in A             =   2.274301
 
 Write flags
   LWAVE        =      T    write WAVECAR
   LDOWNSAMPLE  =      F    k-point downsampling of WAVECAR
   LCHARG       =      T    write CHGCAR
   LVTOT        =      F    write LOCPOT, total local potential
   LVHAR        =      F    write LOCPOT, Hartree potential only
   LELF         =      F    write electronic localiz. function (ELF)
   LORBIT       =     11    0 simple, 1 ext, 2 COOP (PROOUT), +10 PAW based schemes


 Dipole corrections
   LMONO  =      F    monopole corrections only (constant potential shift)
   LDIPOL =      T    correct potential (dipole corrections)
   IDIPOL =      3    1-x, 2-y, 3-z, 4-all directions 
   EPSILON=  1.0000000 bulk dielectric constant

 Exchange correlation treatment:
   GGA     =    PE    GGA type
   LEXCH   =     8    internal setting for exchange type
   LIBXC   =     F    Libxc                    
   VOSKOWN =     0    Vosko Wilk Nusair interpolation
   LHFCALC =     F    Hartree Fock is set to
   LHFONE  =     F    Hartree Fock one center treatment
   AEXX    =    0.0000 exact exchange contribution

 Linear response parameters
   LEPSILON=     F    determine dielectric tensor
   LRPA    =     F    only Hartree local field effects (RPA)
   LNABLA  =     F    use nabla operator in PAW spheres
   LVEL    =     F    velocity operator in full k-point grid
   CSHIFT  =0.1000    complex shift for real part using Kramers Kronig
   OMEGAMAX=  -1.0    maximum frequency
   DEG_THRESHOLD= 0.2000000E-02 threshold for treating states as degnerate
   RTIME   =   -0.100 relaxation time in fs
  (WPLASMAI=    0.000 imaginary part of plasma frequency in eV, 0.658/RTIME)
   DFIELD  = 0.0000000 0.0000000 0.0000000 field for delta impulse in time
 
  Optional k-point grid parameters
   LKPOINTS_OPT  =     F    use optional k-point grid
   KPOINTS_OPT_MODE=     1    mode for optional k-point grid
 
 Orbital magnetization related:
   ORBITALMAG=     F  switch on orbital magnetization
   LCHIMAG   =     F  perturbation theory with respect to B field
   DQ        =  0.001000  dq finite difference perturbation B field
   LLRAUG    =     F  two centre corrections for induced B field



--------------------------------------------------------------------------------------------------------


 Static calculation
 charge density and potential remain constant during run
 spin polarized calculation
 Variant of blocked Davidson
 Davidson routine will perform the subspace rotation
 perform sub-space diagonalisation
    after iterative eigenvector-optimisation
 no mixing
 using additional bands           89
 real space projection scheme for non local part
 use partial core corrections
 calculate Harris-corrections to forces 
   (improved forces if not selfconsistent)
 use gradient corrections 
 WARNING: stress and forces are not correct
  (second derivative of E(xc) not defined)
 use of overlap-Matrix (Vanderbilt PP)
 Methfessel and Paxton  Order N= 1 SIGMA  =   0.10


--------------------------------------------------------------------------------------------------------


  energy-cutoff  :      450.00
  volume of cell :     1710.69
      direct lattice vectors                 reciprocal lattice vectors
     8.532699585  0.000000000  0.000000000     0.117196204  0.000007163  0.000000000
    -0.000519333  8.496999725  0.000000000     0.000000000  0.117688600  0.000000000
     0.000000000  0.000000000 23.594999313     0.000000000  0.000000000  0.042381862

  length of vectors
     8.532699585  8.496999741 23.594999313     0.117196204  0.117688600  0.042381862


 
 old parameters found on file WAVECAR:
  energy-cutoff  :      450.00
  volume of cell :     1710.69
      direct lattice vectors                 reciprocal lattice vectors
     8.532699585  0.000000000  0.000000000     0.117196204  0.000007163  0.000000000
    -0.000519333  8.496999725  0.000000000     0.000000000  0.117688600  0.000000000
     0.000000000  0.000000000 23.594999313     0.000000000  0.000000000  0.042381862

  length of vectors

 
 k-points in units of 2pi/SCALE and weight: K-Spacing Value to Generate K-Mesh: 0.03
   0.00000000  0.00000000  0.00000000       0.062
   0.02929905  0.00000179  0.00000000       0.125
   0.05859810  0.00000358  0.00000000       0.062
   0.00000000  0.02942215  0.00000000       0.125
   0.02929905  0.02942394  0.00000000       0.125
   0.05859810  0.02942573  0.00000000       0.125
  -0.02929905  0.02942036  0.00000000       0.125
   0.00000000  0.05884430  0.00000000       0.062
   0.02929905  0.05884609  0.00000000       0.125
   0.05859810  0.05884788  0.00000000       0.062
 
 k-points in reciprocal lattice and weights: K-Spacing Value to Generate K-Mesh: 0.03
   0.00000000  0.00000000  0.00000000       0.062
   0.25000000  0.00000000  0.00000000       0.125
   0.50000000  0.00000000  0.00000000       0.062
   0.00000000  0.25000000  0.00000000       0.125
   0.25000000  0.25000000  0.00000000       0.125
   0.50000000  0.25000000  0.00000000       0.125
  -0.25000000  0.25000000  0.00000000       0.125
   0.00000000  0.50000000  0.00000000       0.062
   0.25000000  0.50000000  0.00000000       0.125
   0.50000000  0.50000000  0.00000000       0.062
 
 position of ions in fractional coordinates (direct lattice) 
   0.00086000  0.99993000  0.24271000
   0.16626769  0.16575644  0.30369500
   0.50120145  0.16676079  0.30764167
   0.66822000  0.00107000  0.24272000
   0.83374116  0.16946272  0.30381090
   0.00044000  0.33497000  0.24240000
   0.16640462  0.50254777  0.30362740
   0.33469000  0.33305000  0.24267000
   0.50156301  0.49715214  0.30349304
   0.83495085  0.50423917  0.30240659
   0.16761919  0.83424967  0.30449006
   0.33342000  0.66555000  0.24261000
   0.83724831  0.83226544  0.30305123
   0.00064000  0.00119000  0.00199000
   0.99696510  0.00589455  0.36147297
   0.16843000  0.16962000  0.06269000
   0.33460000  0.00297000  0.00254000
   0.33027751  0.99813463  0.36272351
   0.50463000  0.16850000  0.06120000
   0.83272000  0.16670000  0.06193000
   0.00004000  0.33467000  0.00213000
   0.99914268  0.33280193  0.36059210
   0.16757000  0.49895000  0.06268000
   0.50099000  0.49896000  0.06206000
   0.83393000  0.50234000  0.06235000
   0.00121000  0.66785000  0.00188000
   0.99853816  0.66544501  0.36057215
   0.16792000  0.83462000  0.06228000
   0.33437000  0.66664000  0.00225000
   0.34066409  0.66409783  0.36146322
   0.50152000  0.83563000  0.06217000
   0.66753000  0.66705000  0.00175000
   0.66384397  0.66675293  0.36027299
   0.83293000  0.83584000  0.06235000
   0.00121000  0.00098000  0.12225000
   0.16700000  0.16811000  0.18239000
   0.33470000  0.00227000  0.12192000
   0.50174000  0.16716000  0.18263000
   0.83421000  0.16639000  0.18283000
   0.16964000  0.49868000  0.18209000
   0.50219000  0.50081000  0.18317000
   0.66741000  0.33395000  0.12233000
   0.83134000  0.50253000  0.18283000
   0.00132000  0.66795000  0.12253000
   0.16898000  0.83509000  0.18243000
   0.33446000  0.66703000  0.12223000
   0.49971000  0.83538000  0.18278000
   0.66698000  0.66840000  0.12259000
   0.83488000  0.83403000  0.18294000
   0.33558000  0.99863000  0.24353000
   0.66801000  0.33262000  0.24229000
   0.00448000  0.66739000  0.24217000
   0.49655519  0.83553756  0.30220330
   0.66521000  0.67351000  0.24327000
   0.66620000  0.99680000  0.00000000
   0.67593329  0.98953029  0.36299016
   0.33213000  0.33386000  0.00135000
   0.32407605  0.33930227  0.36512252
   0.67040000  0.33673000  0.00321000
   0.67646327  0.34272561  0.36667116
   0.66728000  0.99998000  0.12246000
   0.99806000  0.33495000  0.12235000
   0.33675000  0.33238000  0.12261000
   0.49908809  0.15936828  0.44487919
 
 position of ions in cartesian coordinates  (Angst):
   0.00681883  8.49640493  5.72674228
   1.41862617  1.40843244  7.16568335
   4.27651483  1.41696642  7.25880488
   5.70171996  0.00909179  5.72697823
   7.11397482  1.43992465  7.16841787
   0.00358043  2.84624000  5.71942783
   1.41961966  4.27014823  7.16408822
   2.85563626  2.82992576  5.72579848
   4.27942834  4.22430157  7.16091817
   7.12412287  4.28452005  7.13528323
   1.42981095  7.08861921  7.18444281
   2.84462705  5.65517817  5.72438278
   7.14355607  7.07175920  7.15049366
   0.00546031  0.01011143  0.04695405
   8.50680065  0.05008603  8.52895443
   1.43707450  1.44126109  1.47917051
   2.85503974  0.02523609  0.05993130
   2.81764040  8.48114970  8.55846087
   4.30576868  1.43174445  1.44401396
   7.10526303  1.41644985  1.46123831
   0.00016750  2.84369090  0.05025735
   8.52521149  2.82781790  8.50817024
   1.42956535  4.23957801  1.47893456
   4.27453804  4.23966298  1.46430566
   7.11541328  4.26838284  1.47114821
   0.00997773  5.67472127  0.04435860
   8.51988055  5.65428604  8.50769956
   1.43237747  7.09176591  1.46949656
   2.85273255  5.66443990  0.05308875
   2.90643941  5.64283912  8.52872446
   4.27888553  7.10034788  1.46690111
   5.69548653  5.66792367  0.04129125
   5.66403493  5.66539946  8.50064098
   7.10670739  7.10213225  1.47114821
   0.01032406  0.00832706  2.88448867
   1.42487353  1.42843062  4.30349192
   2.85589337  0.01928819  2.87670232
   4.28110988  1.42035847  4.30915472
   7.11797691  1.41381578  4.31387372
   1.44722818  4.23728382  4.29641342
   4.28477632  4.25538243  4.32189602
   5.69463560  2.83757306  2.88637627
   7.09331349  4.26999727  4.31387372
   0.01091628  5.67557097  2.89109527
   1.44142189  7.09575950  4.30443572
   2.85350029  5.66775373  2.88401677
   4.26344147  7.09822363  4.31269397
   5.69079285  5.67939462  2.89251097
   7.12334709  7.08675268  4.31646917
   2.86288471  8.48535884  5.74609018
   5.69975591  2.82627205  5.71683238
   0.03787990  5.67081265  5.71400098
   4.23652238  7.09956241  7.13048670
   5.67568732  5.72281428  5.73995548
   5.68396679  8.46980933  0.00000000
   5.76702181  8.40803860  8.56475247
   2.83379213  2.83680833  0.03185325
   2.76506734  2.88305128  8.61506556
   5.72014693  2.86119472  0.07573995
   5.77187983  2.91213942  8.65160570
   5.69318046  8.49682978  2.88944362
   8.51597220  2.84607006  2.88684817
   2.87321397  2.82423277  2.89298287
   4.25848599  1.35415219 10.49692430
 


--------------------------------------------------------------------------------------------------------


 k-point   1 :   0.0000 0.0000 0.0000  plane waves:   37053
 k-point   2 :   0.2500 0.0000 0.0000  plane waves:   37082
 k-point   3 :   0.5000 0.0000 0.0000  plane waves:   37122
 k-point   4 :   0.0000 0.2500 0.0000  plane waves:   37091
 k-point   5 :   0.2500 0.2500 0.0000  plane waves:   37070
 k-point   6 :   0.5000 0.2500 0.0000  plane waves:   37050
 k-point   7 :  -0.2500 0.2500 0.0000  plane waves:   37068
 k-point   8 :   0.0000 0.5000 0.0000  plane waves:   37118
 k-point   9 :   0.2500 0.5000 0.0000  plane waves:   37056
 k-point  10 :   0.5000 0.5000 0.0000  plane waves:   37124

 maximum and minimum number of plane-waves per node :     37124    37050

 maximum number of plane-waves:     37124
 maximum index in each direction: 
   IXMAX=   15   IYMAX=   14   IZMAX=   40
   IXMIN=  -15   IYMIN=  -15   IZMIN=  -40


 serial   3D FFT for wavefunctions
 parallel 3D FFT for charge:
    minimum data exchange during FFTs selected (reduces bandwidth)


 total amount of memory used by VASP MPI-rank0  2104677. kBytes
=======================================================================

   base      :      30000. kBytes
   nonlr-proj:      49189. kBytes
   fftplans  :     165536. kBytes
   grid      :     476352. kBytes
   one-center:       1990. kBytes
   wavefun   :    1381610. kBytes
 
     INWAV:  cpu time     25.4727: real time     15.1587
 initial charge density was supplied:
 number of electron     574.0000292 magnetization     104.1376792
 keeping initial charge density in first step


--------------------------------------------------------------------------------------------------------


 Maximum index for non-local projection operator         4950
 Maximum index for augmentation-charges        18216 (set IRDMAX)


--------------------------------------------------------------------------------------------------------


 First call to EWALD:  gamma=   0.148
 Maximum number of real-space cells 4x 4x 2
 Maximum number of reciprocal cells 2x 2x 5

    FEWALD:  cpu time      0.0128: real time      0.0064


--------------------------------------- Iteration      1(   1)  ---------------------------------------


    POTLOK:  cpu time     19.2161: real time      5.2379
    SETDIJ:  cpu time      1.8805: real time      0.2941
     EDDAV:  cpu time    148.4148: real time     22.1520
       DOS:  cpu time      0.0253: real time      0.0169
    --------------------------------------------
      LOOP:  cpu time    169.5369: real time     27.7010

 eigenvalue-minimisations  : 19664
 total energy-change (2. order) :-0.5134493E+03  (-0.2790893E-01)
 number of electron     574.0000292 magnetization     104.1376792
 augmentation part      574.0000292 magnetization     104.1376792

 DIPCOR: dipole corrections for dipol
 direction  3 min pos   235,
 dipolmoment           0.000000      0.000000      0.143196 electrons x Angstroem
 Tr[quadrupol]     -7290.401764

 energy correction for charged system         0.000000 eV
 dipol+quadrupol energy correction           -0.001084 eV
 added-field ion interaction          1.264480 eV  (added to PSCEN)


 Free energy of the ion-electron system (eV)
  ---------------------------------------------------
  alpha Z        PSCENC =      1870.19349567
  Ewald energy   TEWEN  =    209719.28182834
  -Hartree energ DENC   =   -261453.94565450
  -exchange      EXHF   =         0.00000000
  -V(xc)+E(xc)   XCENC  =      1003.89747478
  PAW double counting   =     56063.21450047   -57194.97229699
  entropy T*S    EENTRO =        -0.00366260
  eigenvalues    EBANDS =     -4374.69884203
  atomic energy  EATOM  =     53853.58386974
  Solvation  Ediel_sol  =         0.00000000
  ---------------------------------------------------
  free energy    TOTEN  =      -513.44928712 eV

  energy without entropy =     -513.44562452  energy(sigma->0) =     -513.44806626


--------------------------------------------------------------------------------------------------------




--------------------------------------- Iteration      1(   2)  ---------------------------------------


     EDDAV:  cpu time    148.0527: real time     21.4819
       DOS:  cpu time      0.0221: real time      0.0146
    --------------------------------------------
      LOOP:  cpu time    148.0748: real time     21.4964

 eigenvalue-minimisations  : 20080
 total energy-change (2. order) :-0.3384593E-02  (-0.3384578E-02)
 number of electron     574.0000292 magnetization     104.1376792
 augmentation part      574.0000292 magnetization     104.1376792

 DIPCOR: dipole corrections for dipol
 direction  3 min pos   235,
 dipolmoment           0.000000      0.000000      0.143196 electrons x Angstroem
 Tr[quadrupol]     -7290.401764

 energy correction for charged system         0.000000 eV
 dipol+quadrupol energy correction           -0.001084 eV
 added-field ion interaction          1.264480 eV  (added to PSCEN)


 Free energy of the ion-electron system (eV)
  ---------------------------------------------------
  alpha Z        PSCENC =      1870.19349567
  Ewald energy   TEWEN  =    209719.28182834
  -Hartree energ DENC   =   -261453.94565450
  -exchange      EXHF   =         0.00000000
  -V(xc)+E(xc)   XCENC  =      1003.89747478
  PAW double counting   =     56063.21450047   -57194.97229699
  entropy T*S    EENTRO =        -0.00366336
  eigenvalues    EBANDS =     -4374.70222587
  atomic energy  EATOM  =     53853.58386974
  Solvation  Ediel_sol  =         0.00000000
  ---------------------------------------------------
  free energy    TOTEN  =      -513.45267171 eV

  energy without entropy =     -513.44900836  energy(sigma->0) =     -513.45145060


--------------------------------------------------------------------------------------------------------




--------------------------------------- Iteration      1(   3)  ---------------------------------------


     EDDAV:  cpu time    170.9748: real time     25.0030
       DOS:  cpu time      0.0157: real time      0.0078
    --------------------------------------------
      LOOP:  cpu time    170.9905: real time     25.0109

 eigenvalue-minimisations  : 24048
 total energy-change (2. order) :-0.1957470E-03  (-0.1957452E-03)
 number of electron     574.0000292 magnetization     104.1376792
 augmentation part      574.0000292 magnetization     104.1376792

 DIPCOR: dipole corrections for dipol
 direction  3 min pos   235,
 dipolmoment           0.000000      0.000000      0.143196 electrons x Angstroem
 Tr[quadrupol]     -7290.401764

 energy correction for charged system         0.000000 eV
 dipol+quadrupol energy correction           -0.001084 eV
 added-field ion interaction          1.264480 eV  (added to PSCEN)


 Free energy of the ion-electron system (eV)
  ---------------------------------------------------
  alpha Z        PSCENC =      1870.19349567
  Ewald energy   TEWEN  =    209719.28182834
  -Hartree energ DENC   =   -261453.94565450
  -exchange      EXHF   =         0.00000000
  -V(xc)+E(xc)   XCENC  =      1003.89747478
  PAW double counting   =     56063.21450047   -57194.97229699
  entropy T*S    EENTRO =        -0.00366369
  eigenvalues    EBANDS =     -4374.70242128
  atomic energy  EATOM  =     53853.58386974
  Solvation  Ediel_sol  =         0.00000000
  ---------------------------------------------------
  free energy    TOTEN  =      -513.45286746 eV

  energy without entropy =     -513.44920377  energy(sigma->0) =     -513.45164623


--------------------------------------------------------------------------------------------------------




--------------------------------------- Iteration      1(   4)  ---------------------------------------


     EDDAV:  cpu time    143.0691: real time     21.8997
       DOS:  cpu time      0.0160: real time      0.0080
    --------------------------------------------
      LOOP:  cpu time    143.0851: real time     21.9077

 eigenvalue-minimisations  : 20592
 total energy-change (2. order) :-0.4455214E-05  (-0.4455191E-05)
 number of electron     574.0000292 magnetization     104.1376792
 augmentation part      574.0000292 magnetization     104.1376792

 DIPCOR: dipole corrections for dipol
 direction  3 min pos   235,
 dipolmoment           0.000000      0.000000      0.143196 electrons x Angstroem
 Tr[quadrupol]     -7290.401764

 energy correction for charged system         0.000000 eV
 dipol+quadrupol energy correction           -0.001084 eV
 added-field ion interaction          1.264480 eV  (added to PSCEN)


 Free energy of the ion-electron system (eV)
  ---------------------------------------------------
  alpha Z        PSCENC =      1870.19349567
  Ewald energy   TEWEN  =    209719.28182834
  -Hartree energ DENC   =   -261453.94565450
  -exchange      EXHF   =         0.00000000
  -V(xc)+E(xc)   XCENC  =      1003.89747478
  PAW double counting   =     56063.21450047   -57194.97229699
  entropy T*S    EENTRO =        -0.00366371
  eigenvalues    EBANDS =     -4374.70242572
  atomic energy  EATOM  =     53853.58386974
  Solvation  Ediel_sol  =         0.00000000
  ---------------------------------------------------
  free energy    TOTEN  =      -513.45287192 eV

  energy without entropy =     -513.44920821  energy(sigma->0) =     -513.45165068


--------------------------------------------------------------------------------------------------------




--------------------------------------- Iteration      1(   5)  ---------------------------------------


     EDDAV:  cpu time     69.3040: real time     15.0701
       DOS:  cpu time      0.0556: real time      0.0080
    --------------------------------------------
      LOOP:  cpu time     69.3598: real time     15.0781

 eigenvalue-minimisations  : 12352
 total energy-change (2. order) :-0.2642919E-06  (-0.2642813E-06)
 number of electron     574.0000292 magnetization     104.1376792
 augmentation part      574.0000292 magnetization     104.1376792

 DIPCOR: dipole corrections for dipol
 direction  3 min pos   235,
 dipolmoment           0.000000      0.000000      0.143196 electrons x Angstroem
 Tr[quadrupol]     -7290.401764

 energy correction for charged system         0.000000 eV
 dipol+quadrupol energy correction           -0.001084 eV
 added-field ion interaction          1.264480 eV  (added to PSCEN)


 Free energy of the ion-electron system (eV)
  ---------------------------------------------------
  alpha Z        PSCENC =      1870.19349567
  Ewald energy   TEWEN  =    209719.28182834
  -Hartree energ DENC   =   -261453.94565450
  -exchange      EXHF   =         0.00000000
  -V(xc)+E(xc)   XCENC  =      1003.89747478
  PAW double counting   =     56063.21450047   -57194.97229699
  entropy T*S    EENTRO =        -0.00366371
  eigenvalues    EBANDS =     -4374.70242598
  atomic energy  EATOM  =     53853.58386974
  Solvation  Ediel_sol  =         0.00000000
  ---------------------------------------------------
  free energy    TOTEN  =      -513.45287218 eV

  energy without entropy =     -513.44920848  energy(sigma->0) =     -513.45165095


--------------------------------------------------------------------------------------------------------




 average (electrostatic) potential at core
  the test charge radii are     1.0103  1.0025  1.1541
  (the norm of the test charge is              1.0000)
       1 -48.3872       2 -48.3545       3 -48.5861       4 -48.4427       5 -48.4743
       6 -48.4299       7 -48.3850       8 -48.4435       9 -48.5095      10 -48.4981
      11 -48.3493      12 -48.3886      13 -48.4646      14 -48.5477      15 -48.4976
      16 -48.3338      17 -48.5616      18 -48.2835      19 -48.2673      20 -48.2992
      21 -48.5694      22 -48.4482      23 -48.3169      24 -48.2346      25 -48.2841
      26 -48.5162      27 -48.5224      28 -48.1815      29 -48.5550      30 -48.4634
      31 -48.2470      32 -48.5701      33 -48.4534      34 -48.2577      35 -48.3962
      36 -48.4748      37 -48.3998      38 -48.5522      39 -48.4978      40 -48.4903
      41 -48.4914      42 -48.4463      43 -48.5554      44 -48.3936      45 -48.4012
      46 -48.3791      47 -48.4761      48 -48.4101      49 -48.4791      50 -76.0582
      51 -76.1092      52 -76.2000      53 -75.5174      54 -76.0043      55 -74.8619
      56 -75.4237      57 -74.9320      58 -75.4082      59 -75.1710      60 -75.3852
      61 -76.1518      62 -76.1309      63 -76.1425      64 -95.8197
 
 
 
 E-fermi :   1.0266     XC(G=0):  -6.7170     alpha+bet : -6.5191

 Fermi energy:         1.0265500407

 spin component 1

 k-point     1 :       0.0000    0.0000    0.0000
  band No.  band energies     occupation 
      1     -42.7590      1.00000
      2     -42.7428      1.00000
      3     -42.7301      1.00000
      4     -42.7230      1.00000
      5     -42.6973      1.00000
      6     -42.6825      1.00000
      7     -42.6597      1.00000
      8     -42.6578      1.00000
      9     -42.6467      1.00000
     10     -42.2635      1.00000
     11     -42.1927      1.00000
     12     -42.1367      1.00000
     13     -41.9308      1.00000
     14     -41.8990      1.00000
     15     -41.8594      1.00000
     16     -41.8543      1.00000
     17     -41.8373      1.00000
     18     -41.8326      1.00000
     19     -41.8132      1.00000
     20     -41.7988      1.00000
     21     -41.7812      1.00000
     22     -41.7527      1.00000
     23     -41.7446      1.00000
     24     -41.7373      1.00000
     25     -41.7364      1.00000
     26     -41.7336      1.00000
     27     -41.7166      1.00000
     28     -41.7073      1.00000
     29     -41.6965      1.00000
     30     -41.6963      1.00000
     31     -41.6801      1.00000
     32     -41.6787      1.00000
     33     -41.6677      1.00000
     34     -40.4683      1.00000
     35     -40.3947      1.00000
     36     -40.3304      1.00000
     37     -40.3011      1.00000
     38     -40.2838      1.00000
     39     -40.2576      1.00000
     40     -40.2396      1.00000
     41     -40.1437      1.00000
     42     -40.1349      1.00000
     43     -15.3216      1.00000
     44     -15.2931      1.00000
     45     -15.2858      1.00000
     46     -15.2580      1.00000
     47     -15.2425      1.00000
     48      -7.3822      1.00000
     49      -7.1154      1.00000
     50      -6.1875      1.00000
     51      -5.2502      1.00000
     52      -5.1939      1.00000
     53      -5.1679      1.00000
     54      -5.1414      1.00000
     55      -4.8991      1.00000
     56      -4.6116      1.00000
     57      -4.5781      1.00000
     58      -4.5323      1.00000
     59      -4.5161      1.00000
     60      -4.0975      1.00000
     61      -4.0860      1.00000
     62      -4.0684      1.00000
     63      -4.0543      1.00000
     64      -4.0324      1.00000
     65      -4.0104      1.00000
     66      -3.9952      1.00000
     67      -3.9733      1.00000
     68      -3.7753      1.00000
     69      -3.7535      1.00000
     70      -3.6854      1.00000
     71      -3.6153      1.00000
     72      -3.5849      1.00000
     73      -3.5424      1.00000
     74      -3.5060      1.00000
     75      -3.4217      1.00000
     76      -3.3939      1.00000
     77      -3.3727      1.00000
     78      -3.3560      1.00000
     79      -3.3407      1.00000
     80      -3.3311      1.00000
     81      -3.3076      1.00000
     82      -3.3043      1.00000
     83      -3.2893      1.00000
     84      -3.2738      1.00000
     85      -3.2523      1.00000
     86      -3.2350      1.00000
     87      -3.2253      1.00000
     88      -3.2157      1.00000
     89      -3.1787      1.00000
     90      -3.1660      1.00000
     91      -3.1548      1.00000
     92      -3.1298      1.00000
     93      -3.0886      1.00000
     94      -3.0762      1.00000
     95      -3.0432      1.00000
     96      -2.9991      1.00000
     97      -2.9533      1.00000
     98      -2.9302      1.00000
     99      -2.9256      1.00000
    100      -2.9151      1.00000
    101      -2.8930      1.00000
    102      -2.8823      1.00000
    103      -2.8619      1.00000
    104      -2.8487      1.00000
    105      -2.8259      1.00000
    106      -2.8130      1.00000
    107      -2.8053      1.00000
    108      -2.7942      1.00000
    109      -2.7838      1.00000
    110      -2.7571      1.00000
    111      -2.6899      1.00000
    112      -2.6775      1.00000
    113      -2.6308      1.00000
    114      -2.5986      1.00000
    115      -2.5722      1.00000
    116      -2.5678      1.00000
    117      -2.5522      1.00000
    118      -2.5386      1.00000
    119      -2.5302      1.00000
    120      -2.5235      1.00000
    121      -2.5103      1.00000
    122      -2.5018      1.00000
    123      -2.4937      1.00000
    124      -2.4773      1.00000
    125      -2.4757      1.00000
    126      -2.4543      1.00000
    127      -2.4522      1.00000
    128      -2.4454      1.00000
    129      -2.4354      1.00000
    130      -2.4313      1.00000
    131      -2.4198      1.00000
    132      -2.4056      1.00000
    133      -2.3955      1.00000
    134      -2.3787      1.00000
    135      -2.3653      1.00000
    136      -2.3550      1.00000
    137      -2.3368      1.00000
    138      -2.3263      1.00000
    139      -2.3238      1.00000
    140      -2.3145      1.00000
    141      -2.3019      1.00000
    142      -2.2926      1.00000
    143      -2.2698      1.00000
    144      -2.2633      1.00000
    145      -2.2543      1.00000
    146      -2.2410      1.00000
    147      -2.2250      1.00000
    148      -2.2083      1.00000
    149      -2.2003      1.00000
    150      -2.1808      1.00000
    151      -2.1771      1.00000
    152      -2.1681      1.00000
    153      -2.1563      1.00000
    154      -2.1477      1.00000
    155      -2.1263      1.00000
    156      -2.0987      1.00000
    157      -2.0844      1.00000
    158      -2.0621      1.00000
    159      -2.0572      1.00000
    160      -2.0439      1.00000
    161      -2.0345      1.00000
    162      -2.0276      1.00000
    163      -2.0057      1.00000
    164      -1.9906      1.00000
    165      -1.9809      1.00000
    166      -1.9682      1.00000
    167      -1.9374      1.00000
    168      -1.9244      1.00000
    169      -1.9139      1.00000
    170      -1.9003      1.00000
    171      -1.8810      1.00000
    172      -1.8689      1.00000
    173      -1.8508      1.00000
    174      -1.8424      1.00000
    175      -1.8288      1.00000
    176      -1.8273      1.00000
    177      -1.8125      1.00000
    178      -1.7917      1.00000
    179      -1.7656      1.00000
    180      -1.7581      1.00000
    181      -1.7560      1.00000
    182      -1.7459      1.00000
    183      -1.7348      1.00000
    184      -1.7238      1.00000
    185      -1.6891      1.00000
    186      -1.6708      1.00000
    187      -1.6521      1.00000
    188      -1.6418      1.00000
    189      -1.6171      1.00000
    190      -1.6095      1.00000
    191      -1.5787      1.00000
    192      -1.5673      1.00000
    193      -1.5613      1.00000
    194      -1.5562      1.00000
    195      -1.5281      1.00000
    196      -1.4972      1.00000
    197      -1.4943      1.00000
    198      -1.4800      1.00000
    199      -1.4517      1.00000
    200      -1.4221      1.00000
    201      -1.4185      1.00000
    202      -1.4122      1.00000
    203      -1.3790      1.00000
    204      -1.3689      1.00000
    205      -1.3445      1.00000
    206      -1.3326      1.00000
    207      -1.3164      1.00000
    208      -1.2974      1.00000
    209      -1.2771      1.00000
    210      -1.2734      1.00000
    211      -1.2487      1.00000
    212      -1.2232      1.00000
    213      -1.2151      1.00000
    214      -1.2073      1.00000
    215      -1.1896      1.00000
    216      -1.1476      1.00000
    217      -1.1199      1.00000
    218      -1.0927      1.00000
    219      -1.0897      1.00000
    220      -1.0701      1.00000
    221      -1.0520      1.00000
    222      -1.0376      1.00000
    223      -1.0169      1.00000
    224      -1.0031      1.00000
    225      -0.9921      1.00000
    226      -0.9644      1.00000
    227      -0.9578      1.00000
    228      -0.9517      1.00000
    229      -0.9374      1.00000
    230      -0.9110      1.00000
    231      -0.8842      1.00000
    232      -0.8540      1.00000
    233      -0.8458      1.00000
    234      -0.8218      1.00000
    235      -0.7936      1.00000
    236      -0.7713      1.00000
    237      -0.7631      1.00000
    238      -0.7435      1.00000
    239      -0.7364      1.00000
    240      -0.7101      1.00000
    241      -0.6985      1.00000
    242      -0.6895      1.00000
    243      -0.6836      1.00000
    244      -0.6659      1.00000
    245      -0.6519      1.00000
    246      -0.6309      1.00000
    247      -0.6122      1.00000
    248      -0.5900      1.00000
    249      -0.5830      1.00000
    250      -0.5740      1.00000
    251      -0.5691      1.00000
    252      -0.5403      1.00000
    253      -0.5317      1.00000
    254      -0.5161      1.00000
    255      -0.5077      1.00000
    256      -0.4959      1.00000
    257      -0.4844      1.00000
    258      -0.4569      1.00000
    259      -0.4499      1.00000
    260      -0.4369      1.00000
    261      -0.4292      1.00000
    262      -0.4164      1.00000
    263      -0.4022      1.00000
    264      -0.3947      1.00000
    265      -0.3753      1.00000
    266      -0.3652      1.00000
    267      -0.3561      1.00000
    268      -0.3446      1.00000
    269      -0.3361      1.00000
    270      -0.3330      1.00000
    271      -0.3229      1.00000
    272      -0.3106      1.00000
    273      -0.3090      1.00000
    274      -0.3007      1.00000
    275      -0.2835      1.00000
    276      -0.2749      1.00000
    277      -0.2636      1.00000
    278      -0.2414      1.00000
    279      -0.2403      1.00000
[...]
   95        m_sumb_d                              0.000405                           10   3
   96        densta                                0.038384                            5   3
   97          m_sumb_d                              0.000890                        204   4
   98        m_bcast_z                             0.000063                            1   3
   99      rotate_active_occupied_orbital        0.000007                              1   2
  100      sphpro_fast                           6.758123                              2   2
  101        m_sumb_d                              0.019336                            5   3
  102      force_and_stress                     25.285676                              1   2
  103        set_charge                            0.814330                            1   3
  104          soft_charge                           0.520669                          1   4
  105            fftwav_mpi                            0.030554                     2256   5
  106              fftwav                                0.027749                   2256   6
  107                fft3d                                 0.017461                 2256   7
  108            pw_charge                             0.005043                     2256   5
  109            m_sumb_d                              0.464988                        2   5
  110            fft_gq                                0.012194                        1   5
  111              fft3d_mpi                             0.011425                      2   6
  112                fftbrc_mpi                            0.006611                    2   7
  113                  fftbas_plan_mpi                       0.006608                  2   8
  114                    dfftw_execute                         0.003525                6   9
  115                    map_backward                          0.001026                4   9
  116                      map_gather                            0.000680              2  10
  117          depsum                                0.030624                          1   4
  118            m_sumb_d                              0.000383                        1   5
  119          augmentation_charge                   0.250356                          1   4
  120            fft3d_mpi                             0.055885                        2   5
  121              fftbrc_mpi                            0.046400                      2   6
  122                fftbas_plan_mpi                       0.046397                    2   7
  123                  dfftw_execute                         0.029539                  6   8
  124                  map_backward                          0.016622                  4   8
  125                    map_gather                            0.010735                2   9
  126        forloc                                0.181986                            1   3
  127        fornlr                                3.338093                            1   3
  128          rspher_all                            0.179794                          3   4
  129          phaser                                0.143164                          9   4
  130          rpro_isp                              2.941455                          9   4
  131            fftwav_mpi                            0.162825                     6768   5
  132              fftwav                                0.153880                   6768   6
  133                fft3d                                 0.094933                 6768   7
  134            rpromu_acc                            2.765570                     1692   5
  135          m_sumb_d                              0.022002                          1   4
  136        fordep                                1.205753                            1   3
  137          setdij_                               1.205521                          6   4
  138        setdij_                               4.090241                           20   3
  139        set_dd_magatom                        0.000006                            1   3
  140        set_dd_paw                            0.084208                            1   3
  141          m_sumb_d                              0.003618                          7   4
  142        strkin                                0.094242                            1   3
  143          m_sumb_d                              0.001662                          1   4
  144        strelo                                0.018280                            1   3
  145        strnlr                               10.002415                            1   3
  146          rspher_all                            0.527933                          9   4
  147          phaser                                0.438435                         27   4
  148          rpro_isp                              8.771873                         27   4
  149            fftwav_mpi                            0.439424                    20304   5
  150              fftwav                                0.412515                  20304   6
  151                fft3d                                 0.253968                20304   7
  152            rpromu_acc                            8.296095                     5076   5
  153          m_sumb_d                              0.121166                          9   4
  154        fft3d_mpi                             0.610979                           22   3
  155          fftbrc_mpi                            0.504685                         22   4
  156            fftbas_plan_mpi                       0.504648                       22   5
  157              dfftw_execute                         0.321914                     66   6
  158              map_forward                           0.081327                     20   6
  159                map_scatter                           0.043779                   10   7
  160              map_backward                          0.099272                     24   6
  161                map_gather                            0.063987                   12   7
  162        forhar                                0.361606                            2   3
  163        strehar                               0.011069                            1   3
  164        chggra                                0.027648                            1   3
  165          fft3d_mpi                             0.019797                          3   4
  166            fftbrc_mpi                            0.017085                        3   5
  167              fftbas_plan_mpi                       0.017080                      3   6
  168                map_forward                           0.000057                    4   7
  169                  map_scatter                           0.000007                  2   8
  170                map_backward                          0.000021                    2   7
  171                  map_gather                            0.000003                  1   8
  172          pothar                                0.000965                          1   4
  173        m_bcast_d                             0.000183                            2   3
  174      potlok                                5.378263                              1   2
  175        fft3d_mpi                             0.823965                           26   3
  176          fftbrc_mpi                            0.702884                         26   4
  177            fftbas_plan_mpi                       0.702849                       26   5
  178              dfftw_execute                         0.469371                     78   6
  179              map_forward                           0.101070                     28   6
  180                map_scatter                           0.056475                   14   7
  181              map_backward                          0.110229                     24   6
  182                map_gather                            0.072264                   12   7
  183        fewald                                0.000092                            2   3
  184          rsp                                   0.000056                          2   4
  185          rcp                                   0.000029                          2   4
  186        pothar                                0.029505                            1   3
  187      potlok_metagga                        0.000001                              1   2
  188      set_dd_magatom                        0.000003                              1   2
  189      set_dd_paw                            0.080911                              1   2
  190        m_sumb_d                              0.000247                            7   3
  191      densta                                0.044695                              1   2
  192        m_sumb_d                              0.002159                           43   3
  193      m_sumb_d                              0.001348                              1   2
 
 Flat profile
 ============
 
             routine name                   CPU           calls
 ---------------------------------------------------------------
 total_time                             90.313625           1
 eddav                                  73.414223           5
 rpromu_acc                             18.257258       10950
 potlok                                  9.054770           2
 sphpro_fast                             6.738786           2
 hamiltmu                                6.625817        5028
 setdij_                                 5.900386          29
 lapack                                  5.809350        5028
 force_and_stress                        4.444637           1
 racc0mu_acc                             3.985038        5028
 orth1                                   3.506545       15090
 newband                                 2.331346        5058
 fft3d                                   2.138973      140976
 m_bcast_z                               1.807971        7531
 raccmu_                                 1.638835        5028
 dfftw_execute                           1.543700         255
 choleski                                1.486181           6
 phaser                                  1.118007          69
 fftbas_plan_mpi                         0.905837          88
 rspher_all                              0.774565          14
 w1_copy                                 0.748105      120672
 fftwav                                  0.730932      100752
 m_sumb_d                                0.650862         313
 stufak                                  0.457924           2
 elmin                                   0.428559           1
 fft3d_mpi                               0.425730       40312
 overl_mu                                0.394994        5028
 overl                                   0.378539       69174
 forhar                                  0.361606           2
 lincom                                  0.341054          36
 init_hip                                0.297774           1
 orthch                                  0.262949           1
 ggemm                                   0.258367        6438
 proall                                  0.257273           1
 set_dd_paw                              0.241826           3
 apply_precond                           0.230672       28944
 map_gather                              0.227698          43
 augmentation_charge                     0.194471           1
 eccp                                    0.185055       11280
 forloc                                  0.181986           1
 map_scatter                             0.179597          45
 map_forward                             0.146075          90
 fftwav_mpi                              0.143775      100752
 strnlr                                  0.143009           1
 kinhamil                                0.136998       40224
 fftext_mpi                              0.133755       40224
 map_backward                            0.121115          86
 vhamil                                  0.103615       40224
 strkin                                  0.092580           1
 densta                                  0.080030           6
 setup_precond                           0.063377       11280
 pothar                                  0.060180           3
 rpro_isp                                0.052328          39
 fornlr                                  0.051677           1
 depsum                                  0.030241           1
 strelo                                  0.018280           1
 set_charge                              0.012681           1
 inisym                                  0.011821           1
 strehar                                 0.011069           1
 soft_charge                             0.007889           1
 truncate_high_frequency_w1              0.006907       51504
 chggra                                  0.006886           1
 pw_charge                               0.005043        2256
 rsp                                     0.004426           5
 w1_projall                              0.003474        3618
 hip_hipfft_makeplan                     0.002521           6
 fewald                                  0.001531           5
 fft_gq                                  0.000769           1
 m_bcast_d                               0.000405           9
 rcp                                     0.000384           5
 fordep                                  0.000232           1
 hip_init_hipblas                        0.000202           1
 fftbrc_mpi                              0.000136          88
 crpa_reader                             0.000077           1
 hip_init_rocsolver                      0.000069           1
 vectorpot                               0.000020           2
 set_dd_magatom                          0.000020           3
 posmap                                  0.000016           2
 rotate_active_occupied_orbital          0.000007           1
 potlok_metagga                          0.000006           2
 hip_hipfft_makeplans                    0.000003           3
 redis_pw_over_bands                     0.000000           1
 ---------------------------------------------------------------
  summed up times    250.685453891754     
 
 Accumulative profile
 ====================
 
             routine name                   CPU           calls
 ---------------------------------------------------------------
 total_time                            250.685454           1
 elmin                                 111.593324           1
 eddav                                 105.596993           5
 force_and_stress                       25.285676           1
 rpromu_acc                             18.257258       10950
 rpro_isp                               13.433761          39
 hamiltmu                               13.424453        5028
 potlok                                 10.613398           2
 strnlr                                 10.002415           1
 sphpro_fast                             6.758123           2
 w1_projall                              6.245903        3618
 raccmu_                                 6.018868        5028
 setdij_                                 5.900386          29
 lapack                                  5.809350        5028
 orthch                                  4.814944           1
 racc0mu_acc                             3.985038        5028
 fft3d_mpi                               3.934337       40312
 orth1                                   3.506545       15090
 fornlr                                  3.338093           1
 fftbrc_mpi                              3.124157          88
 fftbas_plan_mpi                         3.124021          88
 newband                                 2.913966        5058
 fftwav_mpi                              2.629230      100752
 fftwav                                  2.485456      100752
 fft3d                                   2.138973      140976
 proall                                  2.027689           1
 m_bcast_z                               1.807971        7531
 dfftw_execute                           1.543700         255
 choleski                                1.486181           6
 fordep                                  1.205753           1
 phaser                                  1.118007          69
 set_charge                              0.814330           1
 rspher_all                              0.774565          14
 w1_copy                                 0.748105      120672
 kinhamil                                0.676152       40224
 m_sumb_d                                0.650862         313
 fftext_mpi                              0.539154       40224
 soft_charge                             0.520669           1
 stufak                                  0.457924           2
 overl_mu                                0.394994        5028
 overl                                   0.378539       69174
 forhar                                  0.361606           2
 map_backward                            0.348812          86
 lincom                                  0.341054          36
 map_forward                             0.325671          90
 init_hip                                0.297774           1
 ggemm                                   0.258367        6438
 set_dd_paw                              0.258103           3
 augmentation_charge                     0.250356           1
 apply_precond                           0.230672       28944
 map_gather                              0.227698          43
 eccp                                    0.185055       11280
 forloc                                  0.181986           1
 map_scatter                             0.179597          45
 vhamil                                  0.103615       40224
 strkin                                  0.094242           1
 densta                                  0.083079           6
 setup_precond                           0.063377       11280
 pothar                                  0.060180           3
 depsum                                  0.030624           1
 chggra                                  0.027648           1
 strelo                                  0.018280           1
 fft_gq                                  0.012194           1
 inisym                                  0.011837           1
 strehar                                 0.011069           1
 truncate_high_frequency_w1              0.006907       51504
 fewald                                  0.006500           5
 pw_charge                               0.005043        2256
 rsp                                     0.004426           5
 hip_hipfft_makeplans                    0.002524           3
 hip_hipfft_makeplan                     0.002521           6
 m_bcast_d                               0.000405           9
 rcp                                     0.000384           5
 hip_init_hipblas                        0.000202           1
 crpa_reader                             0.000077           1
 hip_init_rocsolver                      0.000069           1
 vectorpot                               0.000020           2
 set_dd_magatom                          0.000020           3
 posmap                                  0.000016           2
 rotate_active_occupied_orbital          0.000007           1
 potlok_metagga                          0.000006           2
 redis_pw_over_bands                     0.000000           1
 ---------------------------------------------------------------
 
Profiling took   0.172031  0.094235  0.002843  0.002712 seconds
Profiling took   0.113198 seconds
