Fe2O3                                   
           1
     8.532700    0.000000    0.000000
    -0.000519    8.497000    0.000000
     0.000000    0.000000   23.594999
   Fe   Cr   Pb
    49    14     1
Direct configuration=     1
   0.00086000  0.99993000  0.24271000
   0.16626769  0.16575644  0.30369500
   0.50120145  0.16676079  0.30764167
   0.66822000  0.00107000  0.24272000
   0.83374116  0.16946272  0.30381090
   0.00044000  0.33497000  0.24240000
   0.16640462  0.50254777  0.30362740
   0.33469000  0.33305000  0.24267000
   0.50156301  0.49715214  0.30349304
   0.83495085  0.50423917  0.30240659
   0.16761919  0.83424967  0.30449006
   0.33342000  0.66555000  0.24261000
   0.83724831  0.83226544  0.30305123
   0.00064000  0.00119000  0.00199000
   0.99696510  0.00589455  0.36147297
   0.16843000  0.16962000  0.06269000
   0.33460000  0.00297000  0.00254000
   0.33027751  0.99813463  0.36272351
   0.50463000  0.16850000  0.06120000
   0.83272000  0.16670000  0.06193000
   0.00004000  0.33467000  0.00213000
   0.99914268  0.33280193  0.36059210
   0.16757000  0.49895000  0.06268000
   0.50099000  0.49896000  0.06206000
   0.83393000  0.50234000  0.06235000
   0.00121000  0.66785000  0.00188000
   0.99853816  0.66544501  0.36057215
   0.16792000  0.83462000  0.06228000
   0.33437000  0.66664000  0.00225000
   0.34066409  0.66409783  0.36146322
   0.50152000  0.83563000  0.06217000
   0.66753000  0.66705000  0.00175000
   0.66384397  0.66675293  0.36027299
   0.83293000  0.83584000  0.06235000
   0.00121000  0.00098000  0.12225000
   0.16700000  0.16811000  0.18239000
   0.33470000  0.00227000  0.12192000
   0.50174000  0.16716000  0.18263000
   0.83421000  0.16639000  0.18283000
   0.16964000  0.49868000  0.18209000
   0.50219000  0.50081000  0.18317000
   0.66741000  0.33395000  0.12233000
   0.83134000  0.50253000  0.18283000
   0.00132000  0.66795000  0.12253000
   0.16898000  0.83509000  0.18243000
   0.33446000  0.66703000  0.12223000
   0.49971000  0.83538000  0.18278000
   0.66698000  0.66840000  0.12259000
   0.83488000  0.83403000  0.18294000
   0.33558000  0.99863000  0.24353000
   0.66801000  0.33262000  0.24229000
   0.00448000  0.66739000  0.24217000
   0.49655519  0.83553756  0.30220330
   0.66521000  0.67351000  0.24327000
   0.66620000  0.99680000  0.00000000
   0.67593329  0.98953029  0.36299016
   0.33213000  0.33386000  0.00135000
   0.32407605  0.33930227  0.36512252
   0.67040000  0.33673000  0.00321000
   0.67646327  0.34272561  0.36667116
   0.66728000  0.99998000  0.12246000
   0.99806000  0.33495000  0.12235000
   0.33675000  0.33238000  0.12261000
   0.49908809  0.15936828  0.44487919
