  64  64   0   0
  0.2672958E+02  0.8532700E-09  0.8497000E-09  0.2359500E-08  0.5000000E-15
  1.000000000000000E-004
  CAR 
 ni3al                                   
      5.62073832    -45.55667866  301      1.05605911      1.00000000
    -45.557  0.0000E+00  0.0000E+00  0.0000E+00  0.0000E+00
    -45.386  0.0000E+00  0.0000E+00  0.0000E+00  0.0000E+00
    -45.215  0.0000E+00  0.0000E+00  0.0000E+00  0.0000E+00
    -45.045  0.0000E+00  0.0000E+00  0.0000E+00  0.0000E+00
    -44.874  0.0000E+00  0.0000E+00  0.0000E+00  0.0000E+00
    -44.704  0.0000E+00  0.0000E+00  0.0000E+00  0.0000E+00
    -44.533  0.0000E+00  0.0000E+00  0.0000E+00  0.0000E+00
    -44.363  0.0000E+00  0.0000E+00  0.0000E+00  0.0000E+00
    -44.192  0.0000E+00  0.0000E+00  0.0000E+00  0.0000E+00
    -44.021  0.0000E+00  0.0000E+00  0.0000E+00  0.0000E+00
    -43.851  0.0000E+00  0.0000E+00  0.0000E+00  0.0000E+00
    -43.680  0.0000E+00  0.0000E+00  0.0000E+00  0.0000E+00
    -43.510  0.0000E+00  0.0000E+00  0.0000E+00  0.0000E+00
    -43.339  0.0000E+00  0.0000E+00  0.0000E+00  0.0000E+00
    -43.168  0.0000E+00  0.1759E+02  0.0000E+00  0.3000E+01
    -42.998  0.0000E+00  0.9379E+02  0.0000E+00  0.1900E+02
    -42.827  0.0000E+00  0.1172E+02  0.0000E+00  0.2100E+02
    -42.657  0.2931E+02  0.1759E+02  0.5000E+01  0.2400E+02
    -42.486  0.4103E+02  0.1759E+02  0.1200E+02  0.2700E+02
    -42.315  0.0000E+00  0.0000E+00  0.1200E+02  0.2700E+02
    -42.145  0.5862E+01  0.0000E+00  0.1300E+02  0.2700E+02
    -41.974  0.1172E+02  0.0000E+00  0.1500E+02  0.2700E+02
    -41.804  0.2931E+02  0.0000E+00  0.2000E+02  0.2700E+02
    -41.633  0.7621E+02  0.5862E+01  0.3300E+02  0.2800E+02
    -41.462  0.1759E+02  0.1172E+02  0.3600E+02  0.3000E+02
    -41.292  0.0000E+00  0.0000E+00  0.3600E+02  0.3000E+02
    -41.121  0.0000E+00  0.0000E+00  0.3600E+02  0.3000E+02
    -40.951  0.0000E+00  0.0000E+00  0.3600E+02  0.3000E+02
    -40.780  0.0000E+00  0.0000E+00  0.3600E+02  0.3000E+02
    -40.610  0.0000E+00  0.0000E+00  0.3600E+02  0.3000E+02
    -40.439  0.0000E+00  0.0000E+00  0.3600E+02  0.3000E+02
    -40.268  0.0000E+00  0.1172E+02  0.3600E+02  0.3200E+02
    -40.098  0.2931E+02  0.0000E+00  0.4100E+02  0.3200E+02
    -39.927  0.5862E+01  0.1172E+02  0.4200E+02  0.3400E+02
    -39.757  0.0000E+00  0.1172E+02  0.4200E+02  0.3600E+02
    -39.586  0.0000E+00  0.1172E+02  0.4200E+02  0.3800E+02
    -39.415  0.0000E+00  0.5862E+01  0.4200E+02  0.3900E+02
    -39.245  0.0000E+00  0.1759E+02  0.4200E+02  0.4200E+02
    -39.074  0.0000E+00  0.0000E+00  0.4200E+02  0.4200E+02
    -38.904  0.0000E+00  0.0000E+00  0.4200E+02  0.4200E+02
    -38.733  0.0000E+00  0.0000E+00  0.4200E+02  0.4200E+02
    -38.562  0.0000E+00  0.0000E+00  0.4200E+02  0.4200E+02
    -38.392  0.0000E+00  0.0000E+00  0.4200E+02  0.4200E+02
    -38.221  0.0000E+00  0.0000E+00  0.4200E+02  0.4200E+02
    -38.051  0.0000E+00  0.0000E+00  0.4200E+02  0.4200E+02
    -37.880  0.0000E+00  0.0000E+00  0.4200E+02  0.4200E+02
    -37.709  0.0000E+00  0.0000E+00  0.4200E+02  0.4200E+02
    -37.539  0.0000E+00  0.0000E+00  0.4200E+02  0.4200E+02
    -37.368  0.0000E+00  0.0000E+00  0.4200E+02  0.4200E+02
    -37.198  0.0000E+00  0.0000E+00  0.4200E+02  0.4200E+02
    -37.027  0.0000E+00  0.0000E+00  0.4200E+02  0.4200E+02
    -36.857  0.0000E+00  0.0000E+00  0.4200E+02  0.4200E+02
    -36.686  0.0000E+00  0.0000E+00  0.4200E+02  0.4200E+02
    -36.515  0.0000E+00  0.0000E+00  0.4200E+02  0.4200E+02
    -36.345  0.0000E+00  0.0000E+00  0.4200E+02  0.4200E+02
    -36.174  0.0000E+00  0.0000E+00  0.4200E+02  0.4200E+02
    -36.004  0.0000E+00  0.0000E+00  0.4200E+02  0.4200E+02
    -35.833  0.0000E+00  0.0000E+00  0.4200E+02  0.4200E+02
    -35.662  0.0000E+00  0.0000E+00  0.4200E+02  0.4200E+02
    -35.492  0.0000E+00  0.0000E+00  0.4200E+02  0.4200E+02
    -35.321  0.0000E+00  0.0000E+00  0.4200E+02  0.4200E+02
    -35.151  0.0000E+00  0.0000E+00  0.4200E+02  0.4200E+02
    -34.980  0.0000E+00  0.0000E+00  0.4200E+02  0.4200E+02
    -34.809  0.0000E+00  0.0000E+00  0.4200E+02  0.4200E+02
    -34.639  0.0000E+00  0.0000E+00  0.4200E+02  0.4200E+02
    -34.468  0.0000E+00  0.0000E+00  0.4200E+02  0.4200E+02
    -34.298  0.0000E+00  0.0000E+00  0.4200E+02  0.4200E+02
    -34.127  0.0000E+00  0.0000E+00  0.4200E+02  0.4200E+02
    -33.956  0.0000E+00  0.0000E+00  0.4200E+02  0.4200E+02
    -33.786  0.0000E+00  0.0000E+00  0.4200E+02  0.4200E+02
    -33.615  0.0000E+00  0.0000E+00  0.4200E+02  0.4200E+02
    -33.445  0.0000E+00  0.0000E+00  0.4200E+02  0.4200E+02
    -33.274  0.0000E+00  0.0000E+00  0.4200E+02  0.4200E+02
    -33.104  0.0000E+00  0.0000E+00  0.4200E+02  0.4200E+02
    -32.933  0.0000E+00  0.0000E+00  0.4200E+02  0.4200E+02
    -32.762  0.0000E+00  0.0000E+00  0.4200E+02  0.4200E+02
    -32.592  0.0000E+00  0.0000E+00  0.4200E+02  0.4200E+02
    -32.421  0.0000E+00  0.0000E+00  0.4200E+02  0.4200E+02
    -32.251  0.0000E+00  0.0000E+00  0.4200E+02  0.4200E+02
    -32.080  0.0000E+00  0.0000E+00  0.4200E+02  0.4200E+02
    -31.909  0.0000E+00  0.0000E+00  0.4200E+02  0.4200E+02
    -31.739  0.0000E+00  0.0000E+00  0.4200E+02  0.4200E+02
    -31.568  0.0000E+00  0.0000E+00  0.4200E+02  0.4200E+02
    -31.398  0.0000E+00  0.0000E+00  0.4200E+02  0.4200E+02
    -31.227  0.0000E+00  0.0000E+00  0.4200E+02  0.4200E+02
    -31.056  0.0000E+00  0.0000E+00  0.4200E+02  0.4200E+02
    -30.886  0.0000E+00  0.0000E+00  0.4200E+02  0.4200E+02
    -30.715  0.0000E+00  0.0000E+00  0.4200E+02  0.4200E+02
    -30.545  0.0000E+00  0.0000E+00  0.4200E+02  0.4200E+02
    -30.374  0.0000E+00  0.0000E+00  0.4200E+02  0.4200E+02
    -30.203  0.0000E+00  0.0000E+00  0.4200E+02  0.4200E+02
    -30.033  0.0000E+00  0.0000E+00  0.4200E+02  0.4200E+02
    -29.862  0.0000E+00  0.0000E+00  0.4200E+02  0.4200E+02
    -29.692  0.0000E+00  0.0000E+00  0.4200E+02  0.4200E+02
    -29.521  0.0000E+00  0.0000E+00  0.4200E+02  0.4200E+02
    -29.350  0.0000E+00  0.0000E+00  0.4200E+02  0.4200E+02
    -29.180  0.0000E+00  0.0000E+00  0.4200E+02  0.4200E+02
    -29.009  0.0000E+00  0.0000E+00  0.4200E+02  0.4200E+02
    -28.839  0.0000E+00  0.0000E+00  0.4200E+02  0.4200E+02
    -28.668  0.0000E+00  0.0000E+00  0.4200E+02  0.4200E+02
    -28.498  0.0000E+00  0.0000E+00  0.4200E+02  0.4200E+02
    -28.327  0.0000E+00  0.0000E+00  0.4200E+02  0.4200E+02
    -28.156  0.0000E+00  0.0000E+00  0.4200E+02  0.4200E+02
    -27.986  0.0000E+00  0.0000E+00  0.4200E+02  0.4200E+02
    -27.815  0.0000E+00  0.0000E+00  0.4200E+02  0.4200E+02
    -27.645  0.0000E+00  0.0000E+00  0.4200E+02  0.4200E+02
    -27.474  0.0000E+00  0.0000E+00  0.4200E+02  0.4200E+02
    -27.303  0.0000E+00  0.0000E+00  0.4200E+02  0.4200E+02
    -27.133  0.0000E+00  0.0000E+00  0.4200E+02  0.4200E+02
    -26.962  0.0000E+00  0.0000E+00  0.4200E+02  0.4200E+02
    -26.792  0.0000E+00  0.0000E+00  0.4200E+02  0.4200E+02
    -26.621  0.0000E+00  0.0000E+00  0.4200E+02  0.4200E+02
    -26.450  0.0000E+00  0.0000E+00  0.4200E+02  0.4200E+02
    -26.280  0.0000E+00  0.0000E+00  0.4200E+02  0.4200E+02
    -26.109  0.0000E+00  0.0000E+00  0.4200E+02  0.4200E+02
    -25.939  0.0000E+00  0.0000E+00  0.4200E+02  0.4200E+02
    -25.768  0.0000E+00  0.0000E+00  0.4200E+02  0.4200E+02
    -25.597  0.0000E+00  0.0000E+00  0.4200E+02  0.4200E+02
    -25.427  0.0000E+00  0.0000E+00  0.4200E+02  0.4200E+02
    -25.256  0.0000E+00  0.0000E+00  0.4200E+02  0.4200E+02
    -25.086  0.0000E+00  0.0000E+00  0.4200E+02  0.4200E+02
    -24.915  0.0000E+00  0.0000E+00  0.4200E+02  0.4200E+02
    -24.745  0.0000E+00  0.0000E+00  0.4200E+02  0.4200E+02
    -24.574  0.0000E+00  0.0000E+00  0.4200E+02  0.4200E+02
    -24.403  0.0000E+00  0.0000E+00  0.4200E+02  0.4200E+02
    -24.233  0.0000E+00  0.0000E+00  0.4200E+02  0.4200E+02
    -24.062  0.0000E+00  0.0000E+00  0.4200E+02  0.4200E+02
    -23.892  0.0000E+00  0.0000E+00  0.4200E+02  0.4200E+02
    -23.721  0.0000E+00  0.0000E+00  0.4200E+02  0.4200E+02
    -23.550  0.0000E+00  0.0000E+00  0.4200E+02  0.4200E+02
    -23.380  0.0000E+00  0.0000E+00  0.4200E+02  0.4200E+02
    -23.209  0.0000E+00  0.0000E+00  0.4200E+02  0.4200E+02
    -23.039  0.0000E+00  0.0000E+00  0.4200E+02  0.4200E+02
    -22.868  0.0000E+00  0.0000E+00  0.4200E+02  0.4200E+02
    -22.697  0.0000E+00  0.0000E+00  0.4200E+02  0.4200E+02
    -22.527  0.0000E+00  0.0000E+00  0.4200E+02  0.4200E+02
    -22.356  0.0000E+00  0.0000E+00  0.4200E+02  0.4200E+02
    -22.186  0.0000E+00  0.0000E+00  0.4200E+02  0.4200E+02
    -22.015  0.0000E+00  0.0000E+00  0.4200E+02  0.4200E+02
    -21.844  0.0000E+00  0.0000E+00  0.4200E+02  0.4200E+02
    -21.674  0.0000E+00  0.0000E+00  0.4200E+02  0.4200E+02
    -21.503  0.0000E+00  0.0000E+00  0.4200E+02  0.4200E+02
    -21.333  0.0000E+00  0.0000E+00  0.4200E+02  0.4200E+02
    -21.162  0.0000E+00  0.0000E+00  0.4200E+02  0.4200E+02
    -20.992  0.0000E+00  0.0000E+00  0.4200E+02  0.4200E+02
    -20.821  0.0000E+00  0.0000E+00  0.4200E+02  0.4200E+02
    -20.650  0.0000E+00  0.0000E+00  0.4200E+02  0.4200E+02
    -20.480  0.0000E+00  0.0000E+00  0.4200E+02  0.4200E+02
    -20.309  0.0000E+00  0.0000E+00  0.4200E+02  0.4200E+02
    -20.139  0.0000E+00  0.0000E+00  0.4200E+02  0.4200E+02
    -19.968  0.0000E+00  0.0000E+00  0.4200E+02  0.4200E+02
    -19.797  0.0000E+00  0.0000E+00  0.4200E+02  0.4200E+02
    -19.627  0.0000E+00  0.0000E+00  0.4200E+02  0.4200E+02
    -19.456  0.0000E+00  0.0000E+00  0.4200E+02  0.4200E+02
    -19.286  0.0000E+00  0.0000E+00  0.4200E+02  0.4200E+02
    -19.115  0.0000E+00  0.0000E+00  0.4200E+02  0.4200E+02
    -18.944  0.0000E+00  0.0000E+00  0.4200E+02  0.4200E+02
    -18.774  0.0000E+00  0.0000E+00  0.4200E+02  0.4200E+02
    -18.603  0.0000E+00  0.0000E+00  0.4200E+02  0.4200E+02
    -18.433  0.0000E+00  0.0000E+00  0.4200E+02  0.4200E+02
    -18.262  0.0000E+00  0.0000E+00  0.4200E+02  0.4200E+02
    -18.091  0.0000E+00  0.0000E+00  0.4200E+02  0.4200E+02
    -17.921  0.0000E+00  0.0000E+00  0.4200E+02  0.4200E+02
    -17.750  0.0000E+00  0.0000E+00  0.4200E+02  0.4200E+02
    -17.580  0.0000E+00  0.0000E+00  0.4200E+02  0.4200E+02
    -17.409  0.0000E+00  0.0000E+00  0.4200E+02  0.4200E+02
    -17.239  0.0000E+00  0.0000E+00  0.4200E+02  0.4200E+02
    -17.068  0.0000E+00  0.0000E+00  0.4200E+02  0.4200E+02
    -16.897  0.0000E+00  0.0000E+00  0.4200E+02  0.4200E+02
    -16.727  0.0000E+00  0.0000E+00  0.4200E+02  0.4200E+02
    -16.556  0.0000E+00  0.0000E+00  0.4200E+02  0.4200E+02
    -16.386  0.0000E+00  0.0000E+00  0.4200E+02  0.4200E+02
    -16.215  0.0000E+00  0.0000E+00  0.4200E+02  0.4200E+02
    -16.044  0.0000E+00  0.0000E+00  0.4200E+02  0.4200E+02
    -15.874  0.0000E+00  0.0000E+00  0.4200E+02  0.4200E+02
    -15.703  0.0000E+00  0.0000E+00  0.4200E+02  0.4200E+02
    -15.533  0.0000E+00  0.0000E+00  0.4200E+02  0.4200E+02
    -15.362  0.2345E+02  0.2931E+02  0.4600E+02  0.4700E+02
    -15.191  0.5862E+01  0.0000E+00  0.4700E+02  0.4700E+02
    -15.021  0.0000E+00  0.0000E+00  0.4700E+02  0.4700E+02
    -14.850  0.0000E+00  0.0000E+00  0.4700E+02  0.4700E+02
    -14.680  0.0000E+00  0.0000E+00  0.4700E+02  0.4700E+02
    -14.509  0.0000E+00  0.0000E+00  0.4700E+02  0.4700E+02
    -14.338  0.0000E+00  0.0000E+00  0.4700E+02  0.4700E+02
    -14.168  0.0000E+00  0.0000E+00  0.4700E+02  0.4700E+02
    -13.997  0.0000E+00  0.0000E+00  0.4700E+02  0.4700E+02
    -13.827  0.0000E+00  0.0000E+00  0.4700E+02  0.4700E+02
    -13.656  0.0000E+00  0.0000E+00  0.4700E+02  0.4700E+02
    -13.485  0.0000E+00  0.0000E+00  0.4700E+02  0.4700E+02
    -13.315  0.0000E+00  0.0000E+00  0.4700E+02  0.4700E+02
    -13.144  0.0000E+00  0.0000E+00  0.4700E+02  0.4700E+02
    -12.974  0.0000E+00  0.0000E+00  0.4700E+02  0.4700E+02
    -12.803  0.0000E+00  0.0000E+00  0.4700E+02  0.4700E+02
    -12.633  0.0000E+00  0.0000E+00  0.4700E+02  0.4700E+02
    -12.462  0.0000E+00  0.0000E+00  0.4700E+02  0.4700E+02
    -12.291  0.0000E+00  0.0000E+00  0.4700E+02  0.4700E+02
    -12.121  0.0000E+00  0.0000E+00  0.4700E+02  0.4700E+02
    -11.950  0.0000E+00  0.0000E+00  0.4700E+02  0.4700E+02
    -11.780  0.0000E+00  0.0000E+00  0.4700E+02  0.4700E+02
    -11.609  0.0000E+00  0.0000E+00  0.4700E+02  0.4700E+02
    -11.438  0.0000E+00  0.0000E+00  0.4700E+02  0.4700E+02
    -11.268  0.0000E+00  0.0000E+00  0.4700E+02  0.4700E+02
    -11.097  0.0000E+00  0.0000E+00  0.4700E+02  0.4700E+02
    -10.927  0.0000E+00  0.0000E+00  0.4700E+02  0.4700E+02
    -10.756  0.0000E+00  0.0000E+00  0.4700E+02  0.4700E+02
    -10.585  0.0000E+00  0.0000E+00  0.4700E+02  0.4700E+02
    -10.415  0.0000E+00  0.0000E+00  0.4700E+02  0.4700E+02
    -10.244  0.0000E+00  0.0000E+00  0.4700E+02  0.4700E+02
    -10.074  0.0000E+00  0.0000E+00  0.4700E+02  0.4700E+02
     -9.903  0.0000E+00  0.0000E+00  0.4700E+02  0.4700E+02
     -9.732  0.0000E+00  0.0000E+00  0.4700E+02  0.4700E+02
     -9.562  0.0000E+00  0.0000E+00  0.4700E+02  0.4700E+02
     -9.391  0.0000E+00  0.0000E+00  0.4700E+02  0.4700E+02
     -9.221  0.0000E+00  0.0000E+00  0.4700E+02  0.4700E+02
     -9.050  0.0000E+00  0.0000E+00  0.4700E+02  0.4700E+02
     -8.880  0.0000E+00  0.0000E+00  0.4700E+02  0.4700E+02
     -8.709  0.0000E+00  0.0000E+00  0.4700E+02  0.4700E+02
     -8.538  0.0000E+00  0.0000E+00  0.4700E+02  0.4700E+02
     -8.368  0.0000E+00  0.0000E+00  0.4700E+02  0.4700E+02
     -8.197  0.0000E+00  0.0000E+00  0.4700E+02  0.4700E+02
     -8.027  0.0000E+00  0.0000E+00  0.4700E+02  0.4700E+02
     -7.856  0.0000E+00  0.0000E+00  0.4700E+02  0.4700E+02
     -7.685  0.0000E+00  0.0000E+00  0.4700E+02  0.4700E+02
     -7.515  0.3046E+02  0.5862E+01  0.4776E+02  0.4800E+02
     -7.344  0.3664E+00  0.0000E+00  0.4800E+02  0.4800E+02
     -7.174  0.0000E+00  0.0000E+00  0.4800E+02  0.4800E+02
     -7.003  0.1616E+01  0.1760E+00  0.4808E+02  0.4800E+02
     -6.832  0.1740E+01  0.1671E+01  0.4836E+02  0.4822E+02
     -6.662  0.1674E+01  0.1490E+01  0.4862E+02  0.4847E+02
     -6.491  0.1424E+01  0.1592E+01  0.4889E+02  0.4874E+02
     -6.321  0.1892E+01  0.1986E+01  0.4921E+02  0.4897E+02
     -6.150  0.1564E+01  0.1674E+01  0.4950E+02  0.4929E+02
     -5.979  0.2925E+01  0.1382E+01  0.4996E+02  0.4954E+02
     -5.809  0.4213E+01  0.2758E+01  0.5042E+02  0.4999E+02
     -5.638  0.4362E+01  0.3363E+01  0.5115E+02  0.5052E+02
     -5.468  0.1548E+01  0.3983E+01  0.5160E+02  0.5118E+02
     -5.297  0.3472E+01  0.2185E+01  0.5210E+02  0.5163E+02
     -5.127  0.3645E+01  0.3175E+01  0.5276E+02  0.5213E+02
     -4.956  0.5397E+01  0.4874E+01  0.5381E+02  0.5270E+02
     -4.785  0.5377E+01  0.4433E+01  0.5452E+02  0.5374E+02
     -4.615  0.1116E+02  0.3827E+01  0.5542E+02  0.5431E+02
     -4.444  0.5511E+01  0.5236E+01  0.5616E+02  0.5518E+02
     -4.274  0.8640E+01  0.3078E+01  0.5787E+02  0.5569E+02
     -4.103  0.1254E+02  0.1025E+02  0.5929E+02  0.5639E+02
     -3.932  0.2231E+02  0.8245E+01  0.6180E+02  0.5822E+02
     -3.762  0.2844E+02  0.7846E+01  0.6531E+02  0.5923E+02
     -3.591  0.3552E+02  0.5155E+01  0.7046E+02  0.6060E+02
     -3.421  0.6226E+02  0.8059E+01  0.7669E+02  0.6156E+02
     -3.250  0.8179E+02  0.1671E+02  0.8289E+02  0.6353E+02
     -3.079  0.1053E+03  0.1870E+02  0.9266E+02  0.6619E+02
     -2.909  0.8769E+02  0.1964E+02  0.1013E+03  0.6955E+02
     -2.738  0.5699E+02  0.4198E+02  0.1080E+03  0.7303E+02
     -2.568  0.9256E+02  0.1685E+02  0.1170E+03  0.7660E+02
     -2.397  0.1334E+03  0.3215E+02  0.1295E+03  0.8006E+02
     -2.226  0.1274E+03  0.4436E+02  0.1427E+03  0.8499E+02
     -2.056  0.8898E+02  0.5040E+02  0.1539E+03  0.9057E+02
     -1.885  0.1178E+03  0.6523E+02  0.1656E+03  0.9584E+02
     -1.715  0.1615E+03  0.6047E+02  0.1772E+03  0.1022E+03
     -1.544  0.1643E+03  0.6181E+02  0.1891E+03  0.1077E+03
     -1.374  0.1167E+03  0.6860E+02  0.2010E+03  0.1149E+03
     -1.203  0.1174E+03  0.9417E+02  0.2118E+03  0.1235E+03
     -1.032  0.8039E+02  0.1318E+03  0.2205E+03  0.1319E+03
     -0.862  0.9386E+02  0.1009E+03  0.2286E+03  0.1405E+03
     -0.691  0.9783E+02  0.8544E+02  0.2380E+03  0.1494E+03
     -0.521  0.1192E+03  0.1315E+03  0.2488E+03  0.1595E+03
     -0.350  0.1490E+03  0.1195E+03  0.2627E+03  0.1709E+03
     -0.179  0.2013E+03  0.1312E+03  0.2792E+03  0.1822E+03
     -0.009  0.1341E+03  0.8451E+02  0.2934E+03  0.1929E+03
      0.162  0.1143E+03  0.8535E+02  0.3044E+03  0.2019E+03
      0.332  0.7797E+02  0.6707E+02  0.3133E+03  0.2087E+03
      0.503  0.8777E+02  0.6245E+02  0.3214E+03  0.2150E+03
      0.674  0.6402E+02  0.5845E+02  0.3283E+03  0.2203E+03
      0.844  0.5865E+02  0.4621E+02  0.3354E+03  0.2246E+03
      1.015  0.5697E+02  0.6440E+02  0.3406E+03  0.2308E+03
      1.185  0.3711E+02  0.5241E+02  0.3453E+03  0.2376E+03
      1.356  0.4352E+02  0.9118E+02  0.3509E+03  0.2464E+03
      1.527  0.6027E+02  0.1162E+03  0.3572E+03  0.2561E+03
      1.697  0.6202E+02  0.1112E+03  0.3634E+03  0.2666E+03
      1.868  0.6461E+02  0.1227E+03  0.3697E+03  0.2791E+03
      2.038  0.4310E+02  0.1057E+03  0.3758E+03  0.2904E+03
      2.209  0.3664E+00  0.1384E+03  0.3760E+03  0.3041E+03
      2.380  0.0000E+00  0.1610E+03  0.3760E+03  0.3191E+03
      2.550  0.0000E+00  0.2444E+03  0.3760E+03  0.3354E+03
      2.721  0.0000E+00  0.1505E+03  0.3760E+03  0.3515E+03
      2.891  0.0000E+00  0.8530E+02  0.3760E+03  0.3628E+03
      3.062  0.0000E+00  0.6714E+02  0.3760E+03  0.3706E+03
      3.232  0.0000E+00  0.5340E+02  0.3760E+03  0.3756E+03
      3.403  0.0000E+00  0.0000E+00  0.3760E+03  0.3760E+03
      3.574  0.0000E+00  0.0000E+00  0.3760E+03  0.3760E+03
      3.744  0.0000E+00  0.0000E+00  0.3760E+03  0.3760E+03
      3.915  0.0000E+00  0.0000E+00  0.3760E+03  0.3760E+03
      4.085  0.0000E+00  0.0000E+00  0.3760E+03  0.3760E+03
      4.256  0.0000E+00  0.0000E+00  0.3760E+03  0.3760E+03
      4.427  0.0000E+00  0.0000E+00  0.3760E+03  0.3760E+03
      4.597  0.0000E+00  0.0000E+00  0.3760E+03  0.3760E+03
      4.768  0.0000E+00  0.0000E+00  0.3760E+03  0.3760E+03
      4.938  0.0000E+00  0.0000E+00  0.3760E+03  0.3760E+03
      5.109  0.0000E+00  0.0000E+00  0.3760E+03  0.3760E+03
      5.280  0.0000E+00  0.0000E+00  0.3760E+03  0.3760E+03
      5.450  0.0000E+00  0.0000E+00  0.3760E+03  0.3760E+03
      5.621  0.0000E+00  0.0000E+00  0.3760E+03  0.3760E+03
