       N       E                     dE             d eps       ncg     rms          rms(c)
DAV:   1     0.571160342166E+04    0.57116E+04   -0.24468E+05 15888   0.145E+03
DAV:   2    -0.602393304268E+02   -0.57718E+04   -0.55721E+04 15040   0.426E+02
DAV:   3    -0.530375547241E+03   -0.47014E+03   -0.41772E+03 15512   0.165E+02
DAV:   4    -0.590132927061E+03   -0.59757E+02   -0.56047E+02 26464   0.453E+01
DAV:   5    -0.593505815911E+03   -0.33729E+01   -0.31847E+01 24808   0.107E+01    0.937E+01
DAV:   6    -0.737017937668E+03   -0.14351E+03   -0.36436E+02 27336   0.871E+01    0.152E+02
DAV:   7    -0.706031858471E+03    0.30986E+02   -0.41917E+02 27848   0.115E+02    0.150E+02
DAV:   8    -0.561855081082E+03    0.14418E+03   -0.20145E+02 27512   0.791E+01    0.912E+01
DAV:   9    -0.540543963018E+03    0.21311E+02   -0.76358E+01 25936   0.393E+01    0.697E+01
DAV:  10    -0.525340679654E+03    0.15203E+02   -0.49290E+01 24696   0.280E+01    0.612E+01
DAV:  11    -0.506002714872E+03    0.19338E+02   -0.70825E+01 22080   0.324E+01    0.468E+01
DAV:  12    -0.501132082387E+03    0.48706E+01   -0.37206E+01 20992   0.210E+01    0.367E+01
DAV:  13    -0.501239476081E+03   -0.10739E+00   -0.48564E+00 21664   0.822E+00    0.349E+01
DAV:  14    -0.501134629830E+03    0.10485E+00   -0.68326E-01 24808   0.233E+00    0.361E+01
DAV:  15    -0.501695106578E+03   -0.56048E+00   -0.23311E-01 26864   0.176E+00    0.365E+01
DAV:  16    -0.504130633575E+03   -0.24355E+01   -0.32675E+00 26576   0.638E+00    0.336E+01
DAV:  17    -0.506793759215E+03   -0.26631E+01   -0.40280E+00 25216   0.758E+00    0.285E+01
DAV:  18    -0.509284754997E+03   -0.24910E+01   -0.38305E+00 25408   0.714E+00    0.254E+01
DAV:  19    -0.510241073943E+03   -0.95632E+00   -0.15910E+00 24104   0.383E+00    0.233E+01
DAV:  20    -0.510765228578E+03   -0.52415E+00   -0.42334E-01 24480   0.213E+00    0.227E+01
DAV:  21    -0.511434262034E+03   -0.66903E+00   -0.15046E+00 26136   0.386E+00    0.197E+01
DAV:  22    -0.512185087310E+03   -0.75083E+00   -0.16687E+00 26040   0.499E+00    0.165E+01
DAV:  23    -0.512319604789E+03   -0.13452E+00   -0.67341E-01 25776   0.324E+00    0.154E+01
DAV:  24    -0.512356012766E+03   -0.36408E-01   -0.27754E-01 24976   0.193E+00    0.143E+01
DAV:  25    -0.512591924560E+03   -0.23591E+00   -0.45726E-01 27040   0.261E+00    0.126E+01
DAV:  26    -0.513039518308E+03   -0.44759E+00   -0.11224E+00 26624   0.354E+00    0.992E+00
DAV:  27    -0.513425484400E+03   -0.38597E+00   -0.16041E+00 25368   0.328E+00    0.835E+00
DAV:  28    -0.513495996034E+03   -0.70512E-01   -0.31797E-01 24896   0.221E+00    0.724E+00
DAV:  29    -0.513545857258E+03   -0.49861E-01   -0.35998E-01 26328   0.195E+00    0.538E+00
DAV:  30    -0.513560489553E+03   -0.14632E-01   -0.29168E-01 24608   0.145E+00    0.471E+00
DAV:  31    -0.513571895077E+03   -0.11406E-01   -0.71911E-02 25136   0.100E+00    0.391E+00
DAV:  32    -0.513560777257E+03    0.11118E-01   -0.10473E-01 26008   0.116E+00    0.286E+00
DAV:  33    -0.513553101828E+03    0.76754E-02   -0.61223E-02 24704   0.886E-01    0.237E+00
DAV:  34    -0.513561365224E+03   -0.82634E-02   -0.19382E-02 23968   0.478E-01    0.212E+00
DAV:  35    -0.513566771890E+03   -0.54067E-02   -0.21433E-02 26968   0.658E-01    0.171E+00
DAV:  36    -0.513568385159E+03   -0.16133E-02   -0.29336E-02 25296   0.558E-01    0.143E+00
DAV:  37    -0.513570585682E+03   -0.22005E-02   -0.77310E-03 23520   0.275E-01    0.125E+00
DAV:  38    -0.513570059400E+03    0.52628E-03   -0.86839E-03 26456   0.312E-01    0.887E-01
DAV:  39    -0.513569948544E+03    0.11086E-03   -0.43506E-03 24976   0.238E-01    0.672E-01
DAV:  40    -0.513570300832E+03   -0.35229E-03   -0.21047E-03 26000   0.181E-01    0.606E-01
DAV:  41    -0.513571289132E+03   -0.98830E-03   -0.24896E-03 23656   0.181E-01    0.502E-01
DAV:  42    -0.513571736386E+03   -0.44725E-03   -0.25840E-03 26360   0.156E-01    0.377E-01
DAV:  43    -0.513572165148E+03   -0.42876E-03   -0.11925E-03 26152   0.118E-01    0.313E-01
DAV:  44    -0.513572293510E+03   -0.12836E-03   -0.66581E-04 25840   0.795E-02    0.270E-01
DAV:  45    -0.513572311011E+03   -0.17501E-04   -0.48418E-04 25640   0.888E-02    0.176E-01
DAV:  46    -0.513572372988E+03   -0.61977E-04   -0.51476E-04 25080   0.675E-02    0.145E-01
DAV:  47    -0.513572417288E+03   -0.44300E-04   -0.10558E-04 17920   0.349E-02    0.128E-01
DAV:  48    -0.513572483292E+03   -0.66004E-04   -0.20585E-04 23584   0.419E-02    0.814E-02
DAV:  49    -0.513572518015E+03   -0.34722E-04   -0.12071E-04 21456   0.300E-02    0.617E-02
DAV:  50    -0.513572521384E+03   -0.33698E-05   -0.20844E-05 11744   0.164E-02
   1 F= -.51357252E+03 E0= -.51357252E+03  d E =0.000000E+00  mag=   109.5193
