 vasp.6.3.2 27Jun22 (build Mar 15 2023 15:45:48) complex                        
  
 executed on             LinuxIFC date 2025.02.10  23:36:02
 running on    4 total cores
 distrk:  each k-point on    4 cores,    1 groups
 distr:  one band on NCORE=   1 cores,    4 groups


--------------------------------------------------------------------------------------------------------


 INCAR:
   SYSTEM = ni3al
   PREC = Accurate
   EDIFF = 1E-5
   ISTART = 0
   ICHARG = 2
   LREAL = Auto
   NSW = 0
   ISIF = 2
   IBRION = -1
   ISMEAR = -5
   SIGMA = 0.1
   ENCUT = 450
   ALGO = Normal
   LMAXMIX = 4
   AMIN = 0.01
   NELM = 150
   LCHARG = .T.
   LWAVE = .T.
   ISPIN = 2
   NCORE = 4
   LELF = .T.
   LDIPOL = .TRUE.
   IDIPOL = 3
   AMIX = 0.05
   BMIX = 0.0001
   IMIX = 4

 POTCAR:    PAW_PBE Fe 06Sep2000                  
 POTCAR:    PAW_PBE Cr_pv 02Aug2007               
 POTCAR:    PAW_PBE Pb_d 06Sep2000                
 -----------------------------------------------------------------------------
|                                                                             |
|           W    W    AA    RRRRR   N    N  II  N    N   GGGG   !!!           |
|           W    W   A  A   R    R  NN   N  II  NN   N  G    G  !!!           |
|           W    W  A    A  R    R  N N  N  II  N N  N  G       !!!           |
|           W WW W  AAAAAA  RRRRR   N  N N  II  N  N N  G  GGG   !            |
|           WW  WW  A    A  R   R   N   NN  II  N   NN  G    G                |
|           W    W  A    A  R    R  N    N  II  N    N   GGGG   !!!           |
|                                                                             |
|     You use a magnetic or noncollinear calculation, but did not specify     |
|     the initial magnetic moment with the MAGMOM tag. Note that a            |
|     default of 1 will be used for all atoms. This ferromagnetic setup       |
|     may break the symmetry of the crystal, in particular it may rule        |
|     out finding an antiferromagnetic solution. Thence, we recommend         |
|     setting the initial magnetic moment manually or verifying carefully     |
|     that this magnetic setup is desired.                                    |
|                                                                             |
 -----------------------------------------------------------------------------

 POTCAR:    PAW_PBE Fe 06Sep2000                  
   VRHFIN =Fe:  d7 s1                                                                               
   LEXCH  = PE                                                                                      
   EATOM  =   594.3153 eV,   43.6809 Ry                                                             
                                                                                                    
   TITEL  = PAW_PBE Fe 06Sep2000                                                                    
   LULTRA =        F    use ultrasoft PP ?                                                          
   IUNSCR =        1    unscreen: 0-lin 1-nonlin 2-no                                               
   RPACOR =    2.000    partial core radius                                                         
   POMASS =   55.847; ZVAL   =    8.000    mass and valenz                                          
   RCORE  =    2.300    outmost cutoff radius                                                       
   RWIGS  =    2.460; RWIGS  =    1.302    wigner-seitz radius (au A)                               
   ENMAX  =  267.882; ENMIN  =  200.911 eV                                                          
   RCLOC  =    1.701    cutoff for local pot                                                        
   LCOR   =        T    correct aug charges                                                         
   LPAW   =        T    paw PP                                                                      
   EAUG   =  511.368                                                                                
   DEXC   =    0.000                                                                                
   RMAX   =    2.356    core radius for proj-oper                                                   
   RAUG   =    1.300    factor for augmentation sphere                                              
   RDEP   =    2.442    radius for radial grids                                                     
   RDEPT  =    1.890    core radius for aug-charge                                                  
                                                                                                    
   Atomic configuration                                                                             
    9 entries                                                                                       
     n  l   j            E        occ.                                                              
     1  0  0.50     -6993.8440   2.0000                                                             
     2  0  0.50      -814.6047   2.0000                                                             
     2  1  1.50      -693.3689   6.0000                                                             
     3  0  0.50       -89.4732   2.0000                                                             
     3  1  1.50       -55.6373   6.0000                                                             
     3  2  2.50        -3.8151   7.0000                                                             
     4  0  0.50        -4.2551   1.0000                                                             
     4  1  1.50        -3.4015   0.0000                                                             
     4  3  2.50        -1.3606   0.0000                                                             
   Description                                                                                      
     l       E           TYP  RCUT    TYP  RCUT                                                     
     2     -3.8151135     23  2.300                                                                 
     2     -5.1756961     23  2.300                                                                 
     0     -4.2550963     23  2.300                                                                 
     0      7.2035603     23  2.300                                                                 
     1     -2.7211652     23  2.300                                                                 
     1     18.4316424     23  2.300                                                                 
  local pseudopotential read in
  partial core-charges read in
  partial kinetic energy density read in
  atomic valenz-charges read in
  non local Contribution for L=           2  read in
    real space projection operators read in
  non local Contribution for L=           2  read in
    real space projection operators read in
  non local Contribution for L=           0  read in
    real space projection operators read in
  non local Contribution for L=           0  read in
    real space projection operators read in
  non local Contribution for L=           1  read in
    real space projection operators read in
  non local Contribution for L=           1  read in
    real space projection operators read in
    PAW grid and wavefunctions read in
 
   number of l-projection  operators is LMAX  =           6
   number of lm-projection operators is LMMAX =          18
 
 POTCAR:    PAW_PBE Cr_pv 02Aug2007               
   VRHFIN =Cr : p6d5s1                                                                              
   LEXCH  = PE                                                                                      
   EATOM  =  1647.9177 eV,  121.1185 Ry                                                             
                                                                                                    
   TITEL  = PAW_PBE Cr_pv 02Aug2007                                                                 
   LULTRA =        F    use ultrasoft PP ?                                                          
   IUNSCR =        1    unscreen: 0-lin 1-nonlin 2-no                                               
   RPACOR =    2.080    partial core radius                                                         
   POMASS =   51.996; ZVAL   =   12.000    mass and valenz                                          
   RCORE  =    2.300    outmost cutoff radius                                                       
   RWIGS  =    2.500; RWIGS  =    1.323    wigner-seitz radius (au A)                               
   ENMAX  =  265.681; ENMIN  =  199.261 eV                                                          
   ICORE  =        3    local potential                                                             
   LCOR   =        T    correct aug charges                                                         
   LPAW   =        T    paw PP                                                                      
   EAUG   =  519.424                                                                                
   DEXC   =    0.000                                                                                
   RMAX   =    2.356    core radius for proj-oper                                                   
   RAUG   =    1.300    factor for augmentation sphere                                              
   RDEP   =    2.447    radius for radial grids                                                     
   RDEPT  =    1.882    core radius for aug-charge                                                  
                                                                                                    
   Atomic configuration                                                                             
    8 entries                                                                                       
     n  l   j            E        occ.                                                              
     1  0  0.50     -5880.4963   2.0000                                                             
     2  0  0.50      -667.0865   2.0000                                                             
     2  1  1.50      -560.6250   6.0000                                                             
     3  0  0.50       -73.9860   2.0000                                                             
     3  1  1.50       -45.4378   6.0000                                                             
     3  2  2.50        -2.9137   5.0000                                                             
     4  0  0.50        -4.0071   1.0000                                                             
     4  3  2.50        -1.3606   0.0000                                                             
   Description                                                                                      
     l       E           TYP  RCUT    TYP  RCUT                                                     
     1    -45.4377911     23  2.000                                                                 
     1      1.3605826     23  2.000                                                                 
     2     -2.9136672     23  2.300                                                                 
     2     -4.2742498     23  2.300                                                                 
     0     -4.0071320     23  2.300                                                                 
     0      9.4498803     23  2.300                                                                 
     3      2.7211652     23  2.300                                                                 
  local pseudopotential read in
  partial core-charges read in
  partial kinetic energy density read in
  atomic valenz-charges read in
  non local Contribution for L=           1  read in
    real space projection operators read in
  non local Contribution for L=           1  read in
    real space projection operators read in
  non local Contribution for L=           2  read in
    real space projection operators read in
  non local Contribution for L=           2  read in
    real space projection operators read in
  non local Contribution for L=           0  read in
    real space projection operators read in
  non local Contribution for L=           0  read in
    real space projection operators read in
    PAW grid and wavefunctions read in
 
   number of l-projection  operators is LMAX  =           6
   number of lm-projection operators is LMMAX =          18
 
 POTCAR:    PAW_PBE Pb_d 06Sep2000                
   VRHFIN =Pb:                                                                                      
   LEXCH  = PE                                                                                      
   EATOM  =  1661.6185 eV,  122.1255 Ry                                                             
                                                                                                    
   TITEL  = PAW_PBE Pb_d 06Sep2000                                                                  
   LULTRA =        F    use ultrasoft PP ?                                                          
   IUNSCR =        1    unscreen: 0-lin 1-nonlin 2-no                                               
   RPACOR =    2.200    partial core radius                                                         
   POMASS =  207.200; ZVAL   =   14.000    mass and valenz                                          
   RCORE  =    2.500    outmost cutoff radius                                                       
   RWIGS  =    3.260; RWIGS  =    1.725    wigner-seitz radius (au A)                               
   ENMAX  =  237.835; ENMIN  =  178.376 eV                                                          
   ICORE  =        3    local potential                                                             
   LCOR   =        T    correct aug charges                                                         
   LPAW   =        T    paw PP                                                                      
   EAUG   =  391.914                                                                                
   DEXC   =    0.000                                                                                
   RMAX   =    2.565    core radius for proj-oper                                                   
   RAUG   =    1.300    factor for augmentation sphere                                              
   RDEP   =    2.643    radius for radial grids                                                     
   RDEPT  =    2.092    core radius for aug-charge                                                  
                                                                                                    
   Atomic configuration                                                                             
   16 entries                                                                                       
     n  l   j            E        occ.                                                              
     1  0  0.50    -88091.8466   2.0000                                                             
     2  0  0.50    -15753.4197   2.0000                                                             
     2  1  1.50    -13508.1797   6.0000                                                             
     3  0  0.50     -3781.7194   2.0000                                                             
     3  1  1.50     -3138.2529   6.0000                                                             
     3  2  2.50     -2483.2977  10.0000                                                             
     4  0  0.50      -856.2895   2.0000                                                             
     4  1  1.50      -645.4942   6.0000                                                             
     4  2  2.50      -401.8768  10.0000                                                             
     4  3  3.50      -132.9059  14.0000                                                             
     5  0  0.50      -144.0950   2.0000                                                             
     5  1  1.50       -85.7879   6.0000                                                             
     5  2  2.50       -21.1769  10.0000                                                             
     6  0  0.50       -12.0372   2.0000                                                             
     6  1  1.50        -3.4971   2.0000                                                             
     5  3  2.50        -2.7212   0.0000                                                             
   Description                                                                                      
     l       E           TYP  RCUT    TYP  RCUT                                                     
     2    -21.1768523     23  2.500                                                                 
     2      1.3605826     23  2.500                                                                 
     0    -12.0371562     23  2.500                                                                 
     0     13.6058260     23  2.500                                                                 
     1     -3.4971339     23  2.500                                                                 
     1     13.6058260     23  2.500                                                                 
     3     -1.3605826      7  2.500                                                                 
  local pseudopotential read in
  partial core-charges read in
  partial kinetic energy density read in
  atomic valenz-charges read in
  non local Contribution for L=           2  read in
    real space projection operators read in
  non local Contribution for L=           2  read in
    real space projection operators read in
  non local Contribution for L=           0  read in
    real space projection operators read in
  non local Contribution for L=           0  read in
    real space projection operators read in
  non local Contribution for L=           1  read in
    real space projection operators read in
  non local Contribution for L=           1  read in
    real space projection operators read in
    PAW grid and wavefunctions read in
 
   number of l-projection  operators is LMAX  =           6
   number of lm-projection operators is LMMAX =          18
 
 Optimization of the real space projectors (new method)

 maximal supplied QI-value         = 16.25
 optimisation between [QCUT,QGAM] = [ 10.73, 21.61] = [ 32.22,130.83] Ry 
 Optimized for a Real-space Cutoff    1.42 Angstroem

   l    n(q)    QCUT    max X(q) W(low)/X(q) W(high)/X(q)  e(spline) 
   2      8    10.726    80.901    0.24E-03    0.41E-03    0.22E-06
   2      8    10.726    75.754    0.24E-03    0.41E-03    0.23E-06
   0      9    10.726    58.752    0.21E-03    0.17E-03    0.42E-07
   0      9    10.726    30.679    0.19E-03    0.16E-03    0.39E-07
   1      9    10.726    17.977    0.20E-03    0.14E-03    0.16E-06
   1      9    10.726    13.559    0.17E-03    0.11E-03    0.13E-06
 Optimization of the real space projectors (new method)

 maximal supplied QI-value         = 16.25
 optimisation between [QCUT,QGAM] = [ 10.73, 21.61] = [ 32.22,130.83] Ry 
 Optimized for a Real-space Cutoff    1.51 Angstroem

   l    n(q)    QCUT    max X(q) W(low)/X(q) W(high)/X(q)  e(spline) 
   1      9    10.726     3.262    0.86E-04    0.42E-04    0.11E-06
   1      9    10.726     5.741    0.19E-03    0.70E-04    0.20E-06
   2      9    10.726    60.438    0.11E-03    0.51E-04    0.13E-06
   2      9    10.726    55.380    0.12E-03    0.51E-04    0.13E-06
   0     10    10.726    80.273    0.42E-04    0.15E-05    0.77E-07
   0     10    10.726    36.654    0.34E-04    0.84E-06    0.69E-07
 Optimization of the real space projectors (new method)

 maximal supplied QI-value         = 15.12
 optimisation between [QCUT,QGAM] = [ 10.73, 21.62] = [ 32.26,130.87] Ry 
 Optimized for a Real-space Cutoff    1.42 Angstroem

   l    n(q)    QCUT    max X(q) W(low)/X(q) W(high)/X(q)  e(spline) 
   2      8    10.734     3.846    0.11E-03    0.12E-04    0.36E-07
   2      8    10.734     8.593    0.24E-03    0.21E-03    0.13E-06
   0      9    10.734    20.082    0.65E-04    0.10E-03    0.71E-07
   0      9    10.734     8.597    0.91E-04    0.14E-03    0.10E-06
   1      9    10.734    33.223    0.24E-03    0.75E-04    0.13E-06
   1      9    10.734    15.899    0.21E-03    0.70E-04    0.12E-06
  PAW_PBE Fe 06Sep2000                  :
 energy of atom  1       EATOM= -594.3153
 kinetic energy error for atom=    0.0034 (will be added to EATOM!!)
  PAW_PBE Cr_pv 02Aug2007               :
 energy of atom  2       EATOM=-1647.9177
 kinetic energy error for atom=    0.0115 (will be added to EATOM!!)
  PAW_PBE Pb_d 06Sep2000                :
 energy of atom  3       EATOM=-1661.6185
 kinetic energy error for atom=    0.0063 (will be added to EATOM!!)
 
 
 POSCAR: Generated by VASPKIT code
  positions in direct lattice
  velocities in cartesian coordinates
 exchange correlation table for  LEXCH =        8
   RHO(1)=    0.500       N(1)  =     2000
   RHO(2)=  100.500       N(2)  =     4000

 VTST: version 4.2, (08/11/21)

 CHAIN: initializing optimizer
 
 OPT: Using VASP Dynamics algorithm
 CHAIN: Read ICHAIN            0
 
 POSCAR: Generated by VASPKIT code
  positions in direct lattice
  velocities in cartesian coordinates
 


--------------------------------------------------------------------------------------------------------


 ion  position               nearest neighbor table
   1  0.001  1.000  0.243-  49 2.45   5 2.45  39 2.45  45 2.46  36 2.47   2 2.47  13 2.47  11 2.51
                            52 2.83  15 2.83   4 2.84  35 2.84   6 2.85  50 2.86
   2  0.167  0.165  0.304-  22 2.41  15 2.45  18 2.46   1 2.47  50 2.47   8 2.48   6 2.49  58 2.49
                            11 2.82   5 2.82   3 2.83   7 2.85  36 2.87
   3  0.498  0.164  0.300-  18 2.37  50 2.38   4 2.41   8 2.41  51 2.45  56 2.45  58 2.47  60 2.59
                            38 2.76  53 2.80   2 2.83   9 2.88   5 2.89
   4  0.668  0.001  0.243-   3 2.41  39 2.44  38 2.45  49 2.45  47 2.46   5 2.46  53 2.47  13 2.48
                            54 2.78  51 2.82  56 2.82  61 2.84   1 2.84  50 2.84
   5  0.837  0.170  0.302-  15 2.37  22 2.41   6 2.42  51 2.44  56 2.45   1 2.45   4 2.46  60 2.60
                            39 2.80  10 2.81   2 2.82  13 2.86   3 2.89
   6  0.000  0.335  0.242-   5 2.42  10 2.46  36 2.46  39 2.46  40 2.46  43 2.47   7 2.48   2 2.49
                            22 2.79  52 2.82  62 2.83  51 2.84   1 2.85   8 2.85
   7  0.168  0.501  0.305-  22 2.41  27 2.42  30 2.44  12 2.47  52 2.47   6 2.48  58 2.49   8 2.49
                            11 2.83   2 2.85   9 2.87  10 2.88  40 2.89
   8  0.335  0.333  0.243-   3 2.41  40 2.45  38 2.45   9 2.46  36 2.46  41 2.46   2 2.48   7 2.49
                            12 2.83  63 2.83  50 2.84  51 2.84   6 2.85  58 2.85
   9  0.504  0.502  0.301-  30 2.36  54 2.42  51 2.43  12 2.44  33 2.44   8 2.46  58 2.49  60 2.58
                            41 2.77  10 2.78  53 2.82   7 2.87   3 2.88
  10  0.830  0.501  0.301-  27 2.38  51 2.43  54 2.45   6 2.46  22 2.48  52 2.48  33 2.50  60 2.63
                             9 2.78  43 2.80   5 2.81  13 2.83   7 2.88
  11  0.168  0.834  0.307-  27 2.49  50 2.50  52 2.50   1 2.51  15 2.51  12 2.52  30 2.54  18 2.54
                            53 2.80   2 2.82   7 2.83  13 2.84  45 2.93  64 3.06
  12  0.333  0.666  0.243-  53 2.43   9 2.44  41 2.45  40 2.45  45 2.46  47 2.47   7 2.47  11 2.52
                            52 2.81   8 2.83  50 2.83  54 2.83  30 2.84  46 2.84
  13  0.835  0.834  0.304-  27 2.40  15 2.42  33 2.43  54 2.45   1 2.47   4 2.48  56 2.48  52 2.50
                            10 2.83  11 2.84  49 2.86   5 2.86  53 2.90
  14  0.001  0.001  0.002-  20 2.46  34 2.46  28 2.46  16 2.48  26 2.83  21 2.83  35 2.84  17 2.85
                            55 2.85
  15  0.989  0.010  0.363-   5 2.37  13 2.42   2 2.45  11 2.51  56 2.73  22 2.74  64 2.77   1 2.83
                            27 2.98  18 3.05
  16  0.168  0.170  0.063-  63 2.44  37 2.45  57 2.45  17 2.46  35 2.46  62 2.46  21 2.46  14 2.48
                            23 2.80  36 2.82  28 2.85  20 2.86  19 2.87
  17  0.335  0.003  0.003-  19 2.45  16 2.46  31 2.46  28 2.46  57 2.81  37 2.82  55 2.83  14 2.85
                            29 2.86
  18  0.347  0.012  0.364-   3 2.37   2 2.46  53 2.46  11 2.54  58 2.72  56 2.74  64 2.75  50 2.84
                            30 3.04  15 3.05
  19  0.505  0.169  0.061-  59 2.43  42 2.45  17 2.45  61 2.46  63 2.47  55 2.47  57 2.48  37 2.48
                            20 2.80  24 2.81  31 2.83  38 2.87  16 2.87
  20  0.833  0.167  0.062-  59 2.43  14 2.46  61 2.46  42 2.46  21 2.46  62 2.46  35 2.46  55 2.50
                            19 2.80  34 2.81  25 2.85  39 2.85  16 2.86
  21  0.000  0.335  0.002-  23 2.46  25 2.46  20 2.46  16 2.46  59 2.81  26 2.83  14 2.83  57 2.83
                            62 2.84
  22  0.001  0.332  0.361-   2 2.41   5 2.41   7 2.41  10 2.48  15 2.74  27 2.78   6 2.79  58 2.91
                            60 2.93
  23  0.168  0.499  0.063-  62 2.45  21 2.46  57 2.46  46 2.46  44 2.46  63 2.47  29 2.47  26 2.48
                            16 2.80  40 2.82  24 2.85  25 2.85  28 2.85
  24  0.501  0.499  0.062-  59 2.43  42 2.45  63 2.45  29 2.46  46 2.46  32 2.47  57 2.47  48 2.47
                            19 2.81  25 2.84  23 2.85  41 2.86  31 2.86
  25  0.834  0.502  0.062-  59 2.42  62 2.45  32 2.45  44 2.46  48 2.46  26 2.46  21 2.46  42 2.46
                            34 2.83  24 2.84  43 2.84  23 2.85  20 2.85
  26  0.001  0.668  0.002-  25 2.46  28 2.46  23 2.48  34 2.48  21 2.83  14 2.83  29 2.84  44 2.85
                            32 2.85
  27  0.990  0.658  0.361-  10 2.38  13 2.40   7 2.42  11 2.49  64 2.77  22 2.78  33 2.81  52 2.81
                            15 2.98  30 3.05
  28  0.168  0.835  0.062-  35 2.45  37 2.46  44 2.46  46 2.46  17 2.46  29 2.46  26 2.46  14 2.46
                            45 2.83  16 2.85  31 2.85  23 2.85  34 2.86
  29  0.334  0.667  0.002-  24 2.46  28 2.46  23 2.47  31 2.47  57 2.83  46 2.83  32 2.84  26 2.84
                            17 2.86
  30  0.348  0.654  0.363-   9 2.36   7 2.44  53 2.45  11 2.54  33 2.68  58 2.73  64 2.76  12 2.84
                            18 3.04  27 3.05
  31  0.502  0.836  0.062-  61 2.44  55 2.45  37 2.45  17 2.46  48 2.46  32 2.47  46 2.47  29 2.47
                            34 2.83  19 2.83  47 2.85  28 2.85  24 2.86
  32  0.668  0.667  0.002-  25 2.45  24 2.47  31 2.47  34 2.47  55 2.80  59 2.81  29 2.84  26 2.85
                            48 2.85
  33  0.661  0.673  0.361-  53 2.42  13 2.43   9 2.44  10 2.50  30 2.68  54 2.78  27 2.81  56 2.86
                            60 2.93
  34  0.833  0.836  0.062-  61 2.44  35 2.46  48 2.46  14 2.46  55 2.46  32 2.47  44 2.47  26 2.48
                            20 2.81  31 2.83  25 2.83  49 2.85  28 2.86
  35  0.001  0.001  0.122-  28 2.45  34 2.46  36 2.46  39 2.46  45 2.46  16 2.46  20 2.46  49 2.47
                            44 2.83  14 2.84  62 2.84   1 2.84  37 2.85  61 2.85
  36  0.167  0.168  0.182-  35 2.46   8 2.46   6 2.46  63 2.46  37 2.46   1 2.47  62 2.47  50 2.49
                            40 2.81  16 2.82  45 2.83  39 2.84  38 2.86   2 2.87
  37  0.335  0.002  0.122-  16 2.45  31 2.45  28 2.46  38 2.46  45 2.46  47 2.46  36 2.46  19 2.48
                            63 2.81  17 2.82  61 2.84  35 2.85  46 2.85  50 2.87
  38  0.502  0.167  0.183-  63 2.44  51 2.44   4 2.45   8 2.45  61 2.46  42 2.46  37 2.46  50 2.47
                             3 2.76  47 2.82  41 2.84  39 2.84  36 2.86  19 2.87
  39  0.834  0.166  0.183-  51 2.44   4 2.44   1 2.45   6 2.46  62 2.46  35 2.46  61 2.46  42 2.47
                             5 2.80  49 2.82  38 2.84  36 2.84  20 2.85  43 2.86
  40  0.170  0.499  0.182-  63 2.45  12 2.45   8 2.45  46 2.45   6 2.46  52 2.46  62 2.46  44 2.47
                            36 2.81  23 2.82  41 2.84  45 2.86  43 2.89   7 2.89
  41  0.502  0.501  0.183-  51 2.45  12 2.45   8 2.46  48 2.46  42 2.46  63 2.47  54 2.47  46 2.47
                             9 2.77  43 2.81  38 2.84  40 2.84  47 2.84  24 2.86
  42  0.667  0.334  0.122-  19 2.45  24 2.45  38 2.46  20 2.46  43 2.46  41 2.46  25 2.46  39 2.47
                            59 2.81  62 2.82  63 2.82  51 2.83  61 2.84  48 2.84
  43  0.831  0.503  0.183-  48 2.44  51 2.45  42 2.46   6 2.47  62 2.47  44 2.47  52 2.47  54 2.48
                            10 2.80  41 2.81  49 2.82  25 2.84  39 2.86  40 2.89
  44  0.001  0.668  0.123-  25 2.46  49 2.46  28 2.46  45 2.46  23 2.46  43 2.47  40 2.47  34 2.47
                            52 2.82  62 2.83  35 2.83  46 2.84  26 2.85  48 2.85
  45  0.169  0.835  0.182-  52 2.45  50 2.46   1 2.46  46 2.46  35 2.46  37 2.46  12 2.46  44 2.46
                            47 2.82  36 2.83  28 2.83  49 2.85  40 2.86  11 2.93
  46  0.334  0.667  0.122-  40 2.45  23 2.46  28 2.46  45 2.46  24 2.46  47 2.46  31 2.47  41 2.47
                            29 2.83  48 2.84  12 2.84  44 2.84  63 2.84  37 2.85
  47  0.500  0.835  0.183-  54 2.43  50 2.44  61 2.45   4 2.46  37 2.46  48 2.46  46 2.46  12 2.47
                            53 2.80  38 2.82  45 2.82  41 2.84  31 2.85  49 2.86
  48  0.667  0.668  0.123-  43 2.44  25 2.46  31 2.46  41 2.46  34 2.46  49 2.46  47 2.46  24 2.47
                            61 2.82  46 2.84  42 2.84  54 2.85  32 2.85  44 2.85
  49  0.835  0.834  0.183-   1 2.45  54 2.45   4 2.45  44 2.46  52 2.46  48 2.46  61 2.46  35 2.47
                            43 2.82  39 2.82  34 2.85  45 2.85  13 2.86  47 2.86
  50  0.336  0.999  0.244-   3 2.38  53 2.38  47 2.44  45 2.46   2 2.47  38 2.47  36 2.49  11 2.50
                            12 2.83   4 2.84  18 2.84   8 2.84   1 2.86  37 2.87
  51  0.668  0.333  0.242-  10 2.43   9 2.43   5 2.44  38 2.44  39 2.44   3 2.45  41 2.45  43 2.45
                             4 2.82  42 2.83   6 2.84   8 2.84  54 2.90  60 3.03
  52  0.004  0.667  0.242-  45 2.45  40 2.46  49 2.46  43 2.47   7 2.47  10 2.48  13 2.50  11 2.50
                            12 2.81  27 2.81  44 2.82   6 2.82   1 2.83  54 2.90
  53  0.495  0.834  0.301-  50 2.38  54 2.42  33 2.42  12 2.43  30 2.45  18 2.46   4 2.47  56 2.54
                            11 2.80   3 2.80  47 2.80   9 2.82  13 2.90
  54  0.665  0.674  0.243-   9 2.42  53 2.42  47 2.43  49 2.45  10 2.45  13 2.45  41 2.47  43 2.48
                             4 2.78  33 2.78  12 2.83  48 2.85  52 2.90  51 2.90
  55  0.666  0.997  0.000-  31 2.45  34 2.46  19 2.47  20 2.50  32 2.80  17 2.83  14 2.85  61 2.89
                            59 2.89
  56  0.668  0.010  0.362-   5 2.45   3 2.45  13 2.48  53 2.54  60 2.72  15 2.73  18 2.74   4 2.82
                            33 2.86
  57  0.332  0.334  0.001-  16 2.45  23 2.46  24 2.47  19 2.48  17 2.81  29 2.83  21 2.83  63 2.86
                            59 2.89
  58  0.342  0.332  0.364-   3 2.47   9 2.49   7 2.49   2 2.49  60 2.71  18 2.72  30 2.73   8 2.85
                            22 2.91
  59  0.670  0.337  0.003-  25 2.42  19 2.43  24 2.43  20 2.43  32 2.81  42 2.81  21 2.81  57 2.89
                            55 2.89
  60  0.660  0.329  0.371-   9 2.58   3 2.59   5 2.60  10 2.63  58 2.71  56 2.72  22 2.93  33 2.93
                            51 3.03
  61  0.667  1.000  0.122-  34 2.44  31 2.44  47 2.45  38 2.46  20 2.46  39 2.46  19 2.46  49 2.46
                            48 2.82   4 2.84  42 2.84  37 2.84  35 2.85  55 2.89
  62  0.998  0.335  0.122-  25 2.45  23 2.45  39 2.46  40 2.46  20 2.46  16 2.46  43 2.47  36 2.47
                            42 2.82  44 2.83   6 2.83  21 2.84  35 2.84  63 2.89
  63  0.337  0.332  0.123-  38 2.44  16 2.44  40 2.45  24 2.45  36 2.46  41 2.47  23 2.47  19 2.47
                            37 2.81  42 2.82   8 2.83  46 2.84  57 2.86  62 2.89
  64  0.169  0.832  0.436-  18 2.75  30 2.76  15 2.77  27 2.77  11 3.06
 
  Warning from LATTYP: Monoclinic adjustment (A1->A3, A2->A1, A3->A2)!
  LATTYP: Found a simple monoclinic cell.
 ALAT       =     8.4969997406
 B/A-ratio  =     2.7768624260
 C/A-ratio  =     1.0042014647
 COS(beta)  =    -0.0000611195
  
  Lattice vectors:
  
 A1 = (  -0.0005193328,   8.4969997247,   0.0000000000)
 A2 = (   0.0000000000,   0.0000000000,  23.5949993134)
 A3 = (   8.5326995850,   0.0000000000,   0.0000000000)


Analysis of symmetry for initial positions (statically):
=====================================================================
 Subroutine PRICEL returns:
 Original cell was already a primitive cell.
 

 Routine SETGRP: Setting up the symmetry group for a 
 simple monoclinic supercell.


 Subroutine GETGRP returns: Found  1 space group operations
 (whereof  1 operations were pure point group operations)
 out of a pool of  4 trial point group operations.


The static configuration has the point symmetry C_1 .


Analysis of symmetry for dynamics (positions and initial velocities):
=====================================================================
 Subroutine PRICEL returns:
 Original cell was already a primitive cell.
 

 Routine SETGRP: Setting up the symmetry group for a 
 simple monoclinic supercell.


 Subroutine GETGRP returns: Found  1 space group operations
 (whereof  1 operations were pure point group operations)
 out of a pool of  4 trial point group operations.


The dynamic configuration has the point symmetry C_1 .


Analysis of constrained symmetry for selective dynamics:
=====================================================================
 Subroutine PRICEL returns:
 Original cell was already a primitive cell.
 

 Routine SETGRP: Setting up the symmetry group for a 
 simple monoclinic supercell.


 Subroutine GETGRP returns: Found  1 space group operations
 (whereof  1 operations were pure point group operations)
 out of a pool of  4 trial point group operations.


The constrained configuration has the point symmetry C_1 .


Analysis of structural, dynamic, and magnetic symmetry:
=====================================================================
 Subroutine PRICEL returns:
 Original cell was already a primitive cell.
 

 Routine SETGRP: Setting up the symmetry group for a 
 simple monoclinic supercell.


 Subroutine GETGRP returns: Found  1 space group operations
 (whereof  1 operations were pure point group operations)
 out of a pool of  4 trial point group operations.


The overall configuration has the point symmetry C_1 .


 Subroutine INISYM returns: Found  1 space group operations
 (whereof  1 operations are pure point group operations),
 and found     1 'primitive' translations


----------------------------------------------------------------------------------------

                                     Primitive cell                                     

  volume of cell :    1710.6928

  direct lattice vectors                    reciprocal lattice vectors
     8.532699585  0.000000000  0.000000000     0.117196204  0.000007163  0.000000000
    -0.000519333  8.496999725  0.000000000     0.000000000  0.117688600  0.000000000
     0.000000000  0.000000000 23.594999313     0.000000000  0.000000000  0.042381862

  length of vectors
     8.532699585  8.496999741 23.594999313     0.117196204  0.117688600  0.042381862

  position of ions in fractional coordinates (direct lattice)
     0.000860000  0.999930000  0.242710000
     0.167241233  0.165326631  0.303943385
     0.498290840  0.163807049  0.299556802
     0.668220000  0.001070000  0.242720000
     0.836727770  0.170370628  0.301564657
     0.000440000  0.334970000  0.242400000
     0.167536036  0.500712610  0.304622570
     0.334690000  0.333050000  0.242670000
     0.504274619  0.502183356  0.300695967
     0.829932845  0.500699350  0.301315772
     0.167689277  0.833898980  0.306647641
     0.333420000  0.665550000  0.242610000
     0.834814499  0.833864740  0.304087017
     0.000640000  0.001190000  0.001990000
     0.988847519  0.009654842  0.362587300
     0.168430000  0.169620000  0.062690000
     0.334600000  0.002970000  0.002540000
     0.346727705  0.012281452  0.363733745
     0.504630000  0.168500000  0.061200000
     0.832720000  0.166700000  0.061930000
     0.000040000  0.334670000  0.002130000
     0.001364248  0.331535527  0.360618310
     0.167570000  0.498950000  0.062680000
     0.500990000  0.498960000  0.062060000
     0.833930000  0.502340000  0.062350000
     0.001210000  0.667850000  0.001880000
     0.989654768  0.658395575  0.361103349
     0.167920000  0.834620000  0.062280000
     0.334370000  0.666640000  0.002250000
     0.347550006  0.653981049  0.362704533
     0.501520000  0.835630000  0.062170000
     0.667530000  0.667050000  0.001750000
     0.660947440  0.673204248  0.361286596
     0.832930000  0.835840000  0.062350000
     0.001210000  0.000980000  0.122250000
     0.167000000  0.168110000  0.182390000
     0.334700000  0.002270000  0.121920000
     0.501740000  0.167160000  0.182630000
     0.834210000  0.166390000  0.182830000
     0.169640000  0.498680000  0.182090000
     0.502190000  0.500810000  0.183170000
     0.667410000  0.333950000  0.122330000
     0.831340000  0.502530000  0.182830000
     0.001320000  0.667950000  0.122530000
     0.168980000  0.835090000  0.182430000
     0.334460000  0.667030000  0.122230000
     0.499710000  0.835380000  0.182780000
     0.666980000  0.668400000  0.122590000
     0.834880000  0.834030000  0.182940000
     0.335580000  0.998630000  0.243530000
     0.668010000  0.332620000  0.242290000
     0.004480000  0.667390000  0.242170000
     0.494997577  0.834445156  0.301424382
     0.665210000  0.673510000  0.243270000
     0.666200000  0.996800000  0.000000000
     0.668368343  0.009809467  0.362355230
     0.332130000  0.333860000  0.001350000
     0.342180528  0.332458412  0.363519724
     0.670400000  0.336730000  0.003210000
     0.659561617  0.329444263  0.370737918
     0.667280000  0.999980000  0.122460000
     0.998060000  0.334950000  0.122350000
     0.336750000  0.332380000  0.122610000
     0.168617313  0.832125285  0.436270393

  ion indices of the primitive-cell ions
   primitive index   ion index
                 1           1
                 2           2
                 3           3
                 4           4
                 5           5
                 6           6
                 7           7
                 8           8
                 9           9
                10          10
                11          11
                12          12
                13          13
                14          14
                15          15
                16          16
                17          17
                18          18
                19          19
                20          20
                21          21
                22          22
                23          23
                24          24
                25          25
                26          26
                27          27
                28          28
                29          29
                30          30
                31          31
                32          32
                33          33
                34          34
                35          35
                36          36
                37          37
                38          38
                39          39
                40          40
                41          41
                42          42
                43          43
                44          44
                45          45
                46          46
                47          47
                48          48
                49          49
                50          50
                51          51
                52          52
                53          53
                54          54
                55          55
                56          56
                57          57
                58          58
                59          59
                60          60
                61          61
                62          62
                63          63
                64          64

----------------------------------------------------------------------------------------

 
 
 KPOINTS: K-Spacing Value to Generate K-Mesh: 0.03

Automatic generation of k-mesh.
 Grid dimensions read from file:
 generate k-points for:    4    4    1

 Generating k-lattice:

  Cartesian coordinates                     Fractional coordinates (reciprocal lattice)
     0.029299051  0.000001791  0.000000000     0.250000000  0.000000000  0.000000000
     0.000000000  0.029422150  0.000000000     0.000000000  0.250000000  0.000000000
     0.000000000  0.000000000  0.042381862     0.000000000  0.000000000  1.000000000

  Length of vectors
     0.029299051  0.029422150  0.042381862

  Shift w.r.t. Gamma in fractional coordinates (k-lattice)
     0.000000000  0.000000000  0.000000000

 TETIRR: Found     48 inequivalent tetrahedra from       96
 
 Subroutine IBZKPT returns following result:
 ===========================================
 
 Found     10 irreducible k-points:
 
 Following reciprocal coordinates:
            Coordinates               Weight
  0.000000  0.000000  0.000000      1.000000
  0.250000  0.000000  0.000000      2.000000
  0.500000  0.000000  0.000000      1.000000
  0.000000  0.250000  0.000000      2.000000
  0.250000  0.250000  0.000000      2.000000
  0.500000  0.250000  0.000000      2.000000
 -0.250000  0.250000  0.000000      2.000000
  0.000000  0.500000  0.000000      1.000000
  0.250000  0.500000  0.000000      2.000000
  0.500000  0.500000  0.000000      1.000000
 
 Following cartesian coordinates:
            Coordinates               Weight
  0.000000  0.000000  0.000000      1.000000
  0.029299  0.000002  0.000000      2.000000
  0.058598  0.000004  0.000000      1.000000
  0.000000  0.029422  0.000000      2.000000
  0.029299  0.029424  0.000000      2.000000
  0.058598  0.029426  0.000000      2.000000
 -0.029299  0.029420  0.000000      2.000000
  0.000000  0.058844  0.000000      1.000000
  0.029299  0.058846  0.000000      2.000000
  0.058598  0.058848  0.000000      1.000000
 


--------------------------------------------------------------------------------------------------------




 Dimension of arrays:
   k-points           NKPTS =     10   k-points in BZ     NKDIM =     10   number of bands    NBANDS=    376
   number of dos      NEDOS =    301   number of ions     NIONS =     64
   non local maximal  LDIM  =      6   non local SUM 2l+1 LMDIM =     18
   total plane-waves  NPLWV = 604800
   max r-space proj   IRMAX =   5137   max aug-charges    IRDMAX=  18968
   dimension x,y,z NGX =    60 NGY =   60 NGZ =  168
   dimension x,y,z NGXF=   120 NGYF=  120 NGZF=  336
   support grid    NGXF=   120 NGYF=  120 NGZF=  336
   ions per type =              49  14   1
   NGX,Y,Z   is equivalent  to a cutoff of  11.69, 11.74, 11.84 a.u.
   NGXF,Y,Z  is equivalent  to a cutoff of  23.38, 23.48, 23.67 a.u.

 SYSTEM =  ni3al                                   
 POSCAR =  Generated by VASPKIT code               

 Startparameter for this run:
   NWRITE =      2    write-flag & timer
   PREC   = accura    normal or accurate (medium, high low for compatibility)
   ISTART =      0    job   : 0-new  1-cont  2-samecut
   ICHARG =      2    charge: 1-file 2-atom 10-const
   ISPIN  =      2    spin polarized calculation?
   LNONCOLLINEAR =      F non collinear calculations
   LSORBIT =      F    spin-orbit coupling
   INIWAV =      1    electr: 0-lowe 1-rand  2-diag
   LASPH  =      F    aspherical Exc in radial PAW
 Electronic Relaxation 1
   ENCUT  =  450.0 eV  33.07 Ry    5.75 a.u.  14.76 14.70 40.81*2*pi/ulx,y,z
   ENINI  =  450.0     initial cutoff
   ENAUG  =  519.4 eV  augmentation charge cutoff
   NELM   =    150;   NELMIN=  2; NELMDL= -5     # of ELM steps 
   EDIFF  = 0.1E-04   stopping-criterion for ELM
   LREAL  =      T    real-space projection
   NLSPLINE    = F    spline interpolate recip. space projectors
   LCOMPAT=      F    compatible to vasp.4.4
   GGA_COMPAT  = T    GGA compatible to vasp.4.4-vasp.4.6
   LMAXPAW     = -100 max onsite density
   LMAXMIX     =    4 max onsite mixed and CHGCAR
   VOSKOWN=      0    Vosko Wilk Nusair interpolation
   ROPT   =   -0.00025  -0.00025  -0.00025
 Ionic relaxation
   EDIFFG = 0.1E-03   stopping-criterion for IOM
   NSW    =      0    number of steps for IOM
   NBLOCK =      1;   KBLOCK =      1    inner block; outer block 
   IBRION =     -1    ionic relax: 0-MD 1-quasi-New 2-CG
   NFREE  =      0    steps in history (QN), initial steepest desc. (CG)
   ISIF   =      2    stress and relaxation
   IWAVPR =     10    prediction:  0-non 1-charg 2-wave 3-comb
   ISYM   =      2    0-nonsym 1-usesym 2-fastsym
   LCORR  =      T    Harris-Foulkes like correction to forces

   POTIM  = 0.5000    time-step for ionic-motion
   TEIN   =    0.0    initial temperature
   TEBEG  =    0.0;   TEEND  =   0.0 temperature during run
   SMASS  =  -3.00    Nose mass-parameter (am)
   estimated Nose-frequenzy (Omega)   =  0.10E-29 period in steps = 0.13E+47 mass=  -0.166E-26a.u.
   SCALEE = 1.0000    scale energy and forces
   NPACO  =    256;   APACO  = 10.0  distance and # of slots for P.C.
   PSTRESS=    0.0 pullay stress

  Mass of Ions in am
   POMASS =  55.85 52.00207.20
  Ionic Valenz
   ZVAL   =   8.00 12.00 14.00
  Atomic Wigner-Seitz radii
   RWIGS  =  -1.00 -1.00 -1.00
  virtual crystal weights 
   VCA    =   1.00  1.00  1.00
   NELECT =     574.0000    total number of electrons
   NUPDOWN=      -1.0000    fix difference up-down

 DOS related values:
   EMIN   =  10.00;   EMAX   =-10.00  energy-range for DOS
   EFERMI =   0.00
   ISMEAR =    -5;   SIGMA  =   0.10  broadening in eV -4-tet -1-fermi 0-gaus

 Electronic relaxation 2 (details)
   IALGO  =     38    algorithm
   LDIAG  =      T    sub-space diagonalisation (order eigenvalues)
   LSUBROT=      F    optimize rotation matrix (better conditioning)
   TURBO    =      0    0=normal 1=particle mesh
   IRESTART =      0    0=no restart 2=restart with 2 vectors
   NREBOOT  =      0    no. of reboots
   NMIN     =      0    reboot dimension
   EREF     =   0.00    reference energy to select bands
   IMIX   =      4    mixing-type and parameters
     AMIX     =   0.05;   BMIX     =  0.00
     AMIX_MAG =   0.20;   BMIX_MAG =  0.00
     AMIN     =   0.01
     WC   =   100.;   INIMIX=   1;  MIXPRE=   1;  MAXMIX= -45

 Intra band minimization:
   WEIMIN = 0.0000     energy-eigenvalue tresh-hold
   EBREAK =  0.66E-08  absolut break condition
   DEPER  =   0.30     relativ break condition  

   TIME   =   0.40     timestep for ELM

  volume/ion in A,a.u.               =      26.73       180.38
  Fermi-wavevector in a.u.,A,eV,Ry     =   1.137596  2.149745 17.607640  1.294125
  Thomas-Fermi vector in A             =   2.274301
 
 Write flags
   LWAVE        =      T    write WAVECAR
   LDOWNSAMPLE  =      F    k-point downsampling of WAVECAR
   LCHARG       =      T    write CHGCAR
   LVTOT        =      F    write LOCPOT, total local potential
   LVHAR        =      F    write LOCPOT, Hartree potential only
   LELF         =      T    write electronic localiz. function (ELF)
   LORBIT       =      0    0 simple, 1 ext, 2 COOP (PROOUT), +10 PAW based schemes


 Dipole corrections
   LMONO  =      F    monopole corrections only (constant potential shift)
   LDIPOL =      T    correct potential (dipole corrections)
   IDIPOL =      3    1-x, 2-y, 3-z, 4-all directions 
   EPSILON=  1.0000000 bulk dielectric constant

 Exchange correlation treatment:
   GGA     =    --    GGA type
   LEXCH   =     8    internal setting for exchange type
   LIBXC   =     F    Libxc                    
   VOSKOWN =     0    Vosko Wilk Nusair interpolation
   LHFCALC =     F    Hartree Fock is set to
   LHFONE  =     F    Hartree Fock one center treatment
   AEXX    =    0.0000 exact exchange contribution

 Linear response parameters
   LEPSILON=     F    determine dielectric tensor
   LRPA    =     F    only Hartree local field effects (RPA)
   LNABLA  =     F    use nabla operator in PAW spheres
   LVEL    =     F    velocity operator in full k-point grid
   CSHIFT  =0.1000    complex shift for real part using Kramers Kronig
   OMEGAMAX=  -1.0    maximum frequency
   DEG_THRESHOLD= 0.2000000E-02 threshold for treating states as degnerate
   RTIME   =   -0.100 relaxation time in fs
  (WPLASMAI=    0.000 imaginary part of plasma frequency in eV, 0.658/RTIME)
   DFIELD  = 0.0000000 0.0000000 0.0000000 field for delta impulse in time
 
  Optional k-point grid parameters
   LKPOINTS_OPT  =     F    use optional k-point grid
   KPOINTS_OPT_MODE=     1    mode for optional k-point grid
 
 Orbital magnetization related:
   ORBITALMAG=     F  switch on orbital magnetization
   LCHIMAG   =     F  perturbation theory with respect to B field
   DQ        =  0.001000  dq finite difference perturbation B field
   LLRAUG    =     F  two centre corrections for induced B field



--------------------------------------------------------------------------------------------------------


 Static calculation
 charge density and potential will be updated during run
 spin polarized calculation
 Variant of blocked Davidson
 Davidson routine will perform the subspace rotation
 perform sub-space diagonalisation
    after iterative eigenvector-optimisation
 modified Broyden-mixing scheme, WC =      100.0
 initial mixing is a Kerker type mixing with AMIX =  0.0500 and BMIX =      0.0001
 Hartree-type preconditioning will be used
 using additional bands           89
 real space projection scheme for non local part
 use partial core corrections
 calculate Harris-corrections to forces 
   (improved forces if not selfconsistent)
 use gradient corrections 
 use of overlap-Matrix (Vanderbilt PP)
 Fermi weights with tetrahedron method with Bloechl corrections


--------------------------------------------------------------------------------------------------------


  energy-cutoff  :      450.00
  volume of cell :     1710.69
      direct lattice vectors                 reciprocal lattice vectors
     8.532699585  0.000000000  0.000000000     0.117196204  0.000007163  0.000000000
    -0.000519333  8.496999725  0.000000000     0.000000000  0.117688600  0.000000000
     0.000000000  0.000000000 23.594999313     0.000000000  0.000000000  0.042381862

  length of vectors
     8.532699585  8.496999741 23.594999313     0.117196204  0.117688600  0.042381862


 
 k-points in units of 2pi/SCALE and weight: K-Spacing Value to Generate K-Mesh: 0.03
   0.00000000  0.00000000  0.00000000       0.062
   0.02929905  0.00000179  0.00000000       0.125
   0.05859810  0.00000358  0.00000000       0.062
   0.00000000  0.02942215  0.00000000       0.125
   0.02929905  0.02942394  0.00000000       0.125
   0.05859810  0.02942573  0.00000000       0.125
  -0.02929905  0.02942036  0.00000000       0.125
   0.00000000  0.05884430  0.00000000       0.062
   0.02929905  0.05884609  0.00000000       0.125
   0.05859810  0.05884788  0.00000000       0.062
 
 k-points in reciprocal lattice and weights: K-Spacing Value to Generate K-Mesh: 0.03
   0.00000000  0.00000000  0.00000000       0.062
   0.25000000  0.00000000  0.00000000       0.125
   0.50000000  0.00000000  0.00000000       0.062
   0.00000000  0.25000000  0.00000000       0.125
   0.25000000  0.25000000  0.00000000       0.125
   0.50000000  0.25000000  0.00000000       0.125
  -0.25000000  0.25000000  0.00000000       0.125
   0.00000000  0.50000000  0.00000000       0.062
   0.25000000  0.50000000  0.00000000       0.125
   0.50000000  0.50000000  0.00000000       0.062
 
 position of ions in fractional coordinates (direct lattice) 
   0.00086000  0.99993000  0.24271000
   0.16724123  0.16532663  0.30394339
   0.49829084  0.16380705  0.29955680
   0.66822000  0.00107000  0.24272000
   0.83672777  0.17037063  0.30156466
   0.00044000  0.33497000  0.24240000
   0.16753604  0.50071261  0.30462257
   0.33469000  0.33305000  0.24267000
   0.50427462  0.50218336  0.30069597
   0.82993285  0.50069935  0.30131577
   0.16768928  0.83389898  0.30664764
   0.33342000  0.66555000  0.24261000
   0.83481450  0.83386474  0.30408702
   0.00064000  0.00119000  0.00199000
   0.98884752  0.00965484  0.36258730
   0.16843000  0.16962000  0.06269000
   0.33460000  0.00297000  0.00254000
   0.34672770  0.01228145  0.36373375
   0.50463000  0.16850000  0.06120000
   0.83272000  0.16670000  0.06193000
   0.00004000  0.33467000  0.00213000
   0.00136425  0.33153553  0.36061831
   0.16757000  0.49895000  0.06268000
   0.50099000  0.49896000  0.06206000
   0.83393000  0.50234000  0.06235000
   0.00121000  0.66785000  0.00188000
   0.98965477  0.65839557  0.36110335
   0.16792000  0.83462000  0.06228000
   0.33437000  0.66664000  0.00225000
   0.34755001  0.65398105  0.36270453
   0.50152000  0.83563000  0.06217000
   0.66753000  0.66705000  0.00175000
   0.66094744  0.67320425  0.36128660
   0.83293000  0.83584000  0.06235000
   0.00121000  0.00098000  0.12225000
   0.16700000  0.16811000  0.18239000
   0.33470000  0.00227000  0.12192000
   0.50174000  0.16716000  0.18263000
   0.83421000  0.16639000  0.18283000
   0.16964000  0.49868000  0.18209000
   0.50219000  0.50081000  0.18317000
   0.66741000  0.33395000  0.12233000
   0.83134000  0.50253000  0.18283000
   0.00132000  0.66795000  0.12253000
   0.16898000  0.83509000  0.18243000
   0.33446000  0.66703000  0.12223000
   0.49971000  0.83538000  0.18278000
   0.66698000  0.66840000  0.12259000
   0.83488000  0.83403000  0.18294000
   0.33558000  0.99863000  0.24353000
   0.66801000  0.33262000  0.24229000
   0.00448000  0.66739000  0.24217000
   0.49499758  0.83444516  0.30142438
   0.66521000  0.67351000  0.24327000
   0.66620000  0.99680000  0.00000000
   0.66836834  0.00980947  0.36235523
   0.33213000  0.33386000  0.00135000
   0.34218053  0.33245841  0.36351972
   0.67040000  0.33673000  0.00321000
   0.65956162  0.32944426  0.37073792
   0.66728000  0.99998000  0.12246000
   0.99806000  0.33495000  0.12235000
   0.33675000  0.33238000  0.12261000
   0.16861731  0.83212528  0.43627039
 
 position of ions in cartesian coordinates  (Angst):
   0.00681883  8.49640493  5.72674228
   1.42693334  1.40478034  7.17154397
   4.25168097  1.39186845  7.06804253
   5.70171996  0.00909179  5.72697823
   7.13945821  1.44763918  7.11541787
   0.00358043  2.84624000  5.71942783
   1.42927463  4.25455491  7.18756933
   2.85563626  2.82992576  5.72579848
   4.30256303  4.26705184  7.09492112
   7.08130761  4.25444224  7.10954544
   1.43040916  7.08563940  7.23535087
   2.84462705  5.65517817  5.72438278
   7.12278828  7.08534847  7.17493296
   0.00546031  0.01011143  0.04695405
   8.43753380  0.08203719  8.55524711
   1.43707450  1.44126109  1.47917051
   2.85503974  0.02523609  0.05993130
   2.95851697  0.10435549  8.58229747
   4.30576868  1.43174445  1.44401396
   7.10526303  1.41644985  1.46123831
   0.00016750  2.84369090  0.05025735
   0.01146854  2.81705728  8.50878879
   1.42956535  4.23957801  1.47893456
   4.27453804  4.23966298  1.46430566
   7.11541328  4.26838284  1.47114821
   0.00997773  5.67472127  0.04435860
   8.44408490  5.59438702  8.52023328
   1.43237747  7.09176591  1.46949656
   2.85273255  5.66443990  0.05308875
   2.96520016  5.55687679  8.55801321
   4.27888553  7.10034788  1.46690111
   5.69548653  5.66792367  0.04129125
   5.63931633  5.72021631  8.52455699
   7.10670739  7.10213225  1.47114821
   0.01032406  0.00832706  2.88448867
   1.42487353  1.42843062  4.30349192
   2.85589337  0.01928819  2.87670232
   4.28110988  1.42035847  4.30915472
   7.11797691  1.41381578  4.31387372
   1.44722818  4.23728382  4.29641342
   4.28477632  4.25538243  4.32189602
   5.69463560  2.83757306  2.88637627
   7.09331349  4.26999727  4.31387372
   0.01091628  5.67557097  2.89109527
   1.44142189  7.09575950  4.30443572
   2.85350029  5.66775373  2.88401677
   4.26344147  7.09822363  4.31269397
   5.69079285  5.67939462  2.89251097
   7.12334709  7.08675268  4.31646917
   2.86288471  8.48535884  5.74609018
   5.69975591  2.82627205  5.71683238
   0.03787990  5.67081265  5.71400098
   4.22323227  7.09028026  7.11210808
   5.67568732  5.72281428  5.73995548
   5.68396679  8.46980933  0.00000000
   5.70298119  0.08335104  8.54977141
   2.83379213  2.83680833  0.03185325
   2.91955099  2.82489903  8.57724763
   5.72014693  2.86119472  0.07573995
   5.62767004  2.79928781  8.74756093
   5.69318046  8.49682978  2.88944362
   8.51597220  2.84607006  2.88684817
   2.87321397  2.82423277  2.89298287
   1.43832873  7.07056832 10.29379963
 


--------------------------------------------------------------------------------------------------------


 k-point   1 :   0.0000 0.0000 0.0000  plane waves:   37053
 k-point   2 :   0.2500 0.0000 0.0000  plane waves:   37082
 k-point   3 :   0.5000 0.0000 0.0000  plane waves:   37122
 k-point   4 :   0.0000 0.2500 0.0000  plane waves:   37091
 k-point   5 :   0.2500 0.2500 0.0000  plane waves:   37070
 k-point   6 :   0.5000 0.2500 0.0000  plane waves:   37050
 k-point   7 :  -0.2500 0.2500 0.0000  plane waves:   37068
 k-point   8 :   0.0000 0.5000 0.0000  plane waves:   37118
 k-point   9 :   0.2500 0.5000 0.0000  plane waves:   37056
 k-point  10 :   0.5000 0.5000 0.0000  plane waves:   37124

 maximum and minimum number of plane-waves per node :     37124    37050

 maximum number of plane-waves:     37124
 maximum index in each direction: 
   IXMAX=   15   IYMAX=   14   IZMAX=   40
   IXMIN=  -15   IYMIN=  -15   IZMIN=  -40


 serial   3D FFT for wavefunctions
 parallel 3D FFT for charge:
    minimum data exchange during FFTs selected (reduces bandwidth)


 total amount of memory used by VASP MPI-rank0  1431217. kBytes
=======================================================================

   base      :      30000. kBytes
   nonlr-proj:      49203. kBytes
   fftplans  :      43220. kBytes
   grid      :     155462. kBytes
   one-center:       1990. kBytes
   wavefun   :    1151342. kBytes
 
     INWAV:  cpu time      0.0001: real time      0.0000
 Broyden mixing: mesh for mixing (old mesh)
   NGX = 29   NGY = 29   NGZ = 81
  (NGX  =120   NGY  =120   NGZ  =336)
  gives a total of  68121 points

 initial charge density was supplied:
 charge density of overlapping atoms calculated
 number of electron     574.0000000 magnetization      64.0000000
 keeping initial charge density in first step


--------------------------------------------------------------------------------------------------------


 Maximum index for non-local projection operator         4950
 Maximum index for augmentation-charges         4502 (set IRDMAX)


--------------------------------------------------------------------------------------------------------


 First call to EWALD:  gamma=   0.148
 Maximum number of real-space cells 4x 4x 2
 Maximum number of reciprocal cells 2x 2x 5

    FEWALD:  cpu time      0.0127: real time      0.0063


--------------------------------------- Iteration      1(   1)  ---------------------------------------


    POTLOK:  cpu time      6.9059: real time      1.4458
    SETDIJ:  cpu time      0.9442: real time      0.1349
     EDDAV:  cpu time    195.9020: real time     28.1662
 BZINTS: Fermi energy:   12.399182;  574.000000 electrons
         Band energy: 0.190926E+04;  BLOECHL correction:   -0.006314
       DOS:  cpu time      0.7072: real time      0.1044
    --------------------------------------------
      LOOP:  cpu time    204.4597: real time     29.8513

 eigenvalue-minimisations  : 15888
 total energy-change (2. order) : 0.5711603E+04  (-0.2446822E+05)
 number of electron     574.0000000 magnetization      64.0000000
 augmentation part      574.0000000 magnetization      64.0000000

 DIPCOR: dipole corrections for dipol
 direction  3 min pos   236,
 dipolmoment           0.000000      0.000000     -0.000128 electrons x Angstroem
 Tr[quadrupol]     -7067.124993

 energy correction for charged system         0.000000 eV
 dipol+quadrupol energy correction           -0.000000 eV
 added-field ion interaction         -0.001726 eV  (added to PSCEN)


 Free energy of the ion-electron system (eV)
  ---------------------------------------------------
  alpha Z        PSCENC =      1868.92837392
  Ewald energy   TEWEN  =    210398.21261031
  -Hartree energ DENC   =   -262278.73829603
  -exchange      EXHF   =         0.00000000
  -V(xc)+E(xc)   XCENC  =       998.79840716
  PAW double counting   =     46919.87437312   -47958.31232237
  entropy T*S    EENTRO =         0.00000000
  eigenvalues    EBANDS =      1909.25640581
  atomic energy  EATOM  =     53853.58386974
  Solvation  Ediel_sol  =         0.00000000
  ---------------------------------------------------
  free energy    TOTEN  =      5711.60342166 eV

  energy without entropy =     5711.60342166  energy(sigma->0) =     5711.60342166


--------------------------------------------------------------------------------------------------------




--------------------------------------- Iteration      1(   2)  ---------------------------------------


     EDDAV:  cpu time    185.7884: real time     26.6953
 BZINTS: Fermi energy:    2.416230;  574.000000 electrons
         Band energy:-0.386259E+04;  BLOECHL correction:   -0.005170
       DOS:  cpu time      0.5642: real time      0.0820
    --------------------------------------------
      LOOP:  cpu time    186.3525: real time     26.7773

 eigenvalue-minimisations  : 15040
 total energy-change (2. order) :-0.5771843E+04  (-0.5572139E+04)
 number of electron     574.0000000 magnetization      64.0000000
 augmentation part      574.0000000 magnetization      64.0000000

 DIPCOR: dipole corrections for dipol
 direction  3 min pos   236,
 dipolmoment           0.000000      0.000000     -0.000128 electrons x Angstroem
 Tr[quadrupol]     -7067.124993

 energy correction for charged system         0.000000 eV
 dipol+quadrupol energy correction           -0.000000 eV
 added-field ion interaction         -0.001726 eV  (added to PSCEN)


 Free energy of the ion-electron system (eV)
  ---------------------------------------------------
  alpha Z        PSCENC =      1868.92837392
  Ewald energy   TEWEN  =    210398.21261031
  -Hartree energ DENC   =   -262278.73829603
  -exchange      EXHF   =         0.00000000
  -V(xc)+E(xc)   XCENC  =       998.79840716
  PAW double counting   =     46919.87437312   -47958.31232237
  entropy T*S    EENTRO =         0.00000000
  eigenvalues    EBANDS =     -3862.58634628
  atomic energy  EATOM  =     53853.58386974
  Solvation  Ediel_sol  =         0.00000000
  ---------------------------------------------------
  free energy    TOTEN  =       -60.23933043 eV

  energy without entropy =      -60.23933043  energy(sigma->0) =      -60.23933043


--------------------------------------------------------------------------------------------------------




--------------------------------------- Iteration      1(   3)  ---------------------------------------


     EDDAV:  cpu time    191.5981: real time     27.5380
 BZINTS: Fermi energy:    1.470412;  574.000000 electrons
         Band energy:-0.433272E+04;  BLOECHL correction:   -0.002235
       DOS:  cpu time      0.6409: real time      0.0938
    --------------------------------------------
      LOOP:  cpu time    192.2390: real time     27.6318

 eigenvalue-minimisations  : 15512
 total energy-change (2. order) :-0.4701362E+03  (-0.4177213E+03)
 number of electron     574.0000000 magnetization      64.0000000
 augmentation part      574.0000000 magnetization      64.0000000

 DIPCOR: dipole corrections for dipol
 direction  3 min pos   236,
 dipolmoment           0.000000      0.000000     -0.000128 electrons x Angstroem
 Tr[quadrupol]     -7067.124993

 energy correction for charged system         0.000000 eV
 dipol+quadrupol energy correction           -0.000000 eV
 added-field ion interaction         -0.001726 eV  (added to PSCEN)


 Free energy of the ion-electron system (eV)
  ---------------------------------------------------
  alpha Z        PSCENC =      1868.92837392
  Ewald energy   TEWEN  =    210398.21261031
  -Hartree energ DENC   =   -262278.73829603
  -exchange      EXHF   =         0.00000000
  -V(xc)+E(xc)   XCENC  =       998.79840716
  PAW double counting   =     46919.87437312   -47958.31232237
  entropy T*S    EENTRO =         0.00000000
  eigenvalues    EBANDS =     -4332.72256309
  atomic energy  EATOM  =     53853.58386974
  Solvation  Ediel_sol  =         0.00000000
  ---------------------------------------------------
  free energy    TOTEN  =      -530.37554724 eV

  energy without entropy =     -530.37554724  energy(sigma->0) =     -530.37554724


--------------------------------------------------------------------------------------------------------




--------------------------------------- Iteration      1(   4)  ---------------------------------------


     EDDAV:  cpu time    293.5685: real time     42.2361
 BZINTS: Fermi energy:    1.315875;  574.000000 electrons
         Band energy:-0.439248E+04;  BLOECHL correction:   -0.005347
       DOS:  cpu time      0.5611: real time      0.0808
    --------------------------------------------
      LOOP:  cpu time    294.1296: real time     42.3169

 eigenvalue-minimisations  : 26464
 total energy-change (2. order) :-0.5975738E+02  (-0.5604733E+02)
 number of electron     574.0000000 magnetization      64.0000000
 augmentation part      574.0000000 magnetization      64.0000000

 DIPCOR: dipole corrections for dipol
 direction  3 min pos   236,
 dipolmoment           0.000000      0.000000     -0.000128 electrons x Angstroem
 Tr[quadrupol]     -7067.124993

 energy correction for charged system         0.000000 eV
 dipol+quadrupol energy correction           -0.000000 eV
 added-field ion interaction         -0.001726 eV  (added to PSCEN)


 Free energy of the ion-electron system (eV)
  ---------------------------------------------------
  alpha Z        PSCENC =      1868.92837392
  Ewald energy   TEWEN  =    210398.21261031
  -Hartree energ DENC   =   -262278.73829603
  -exchange      EXHF   =         0.00000000
  -V(xc)+E(xc)   XCENC  =       998.79840716
  PAW double counting   =     46919.87437312   -47958.31232237
  entropy T*S    EENTRO =         0.00000000
  eigenvalues    EBANDS =     -4392.47994291
  atomic energy  EATOM  =     53853.58386974
  Solvation  Ediel_sol  =         0.00000000
  ---------------------------------------------------
  free energy    TOTEN  =      -590.13292706 eV

  energy without entropy =     -590.13292706  energy(sigma->0) =     -590.13292706


--------------------------------------------------------------------------------------------------------




--------------------------------------- Iteration      1(   5)  ---------------------------------------


     EDDAV:  cpu time    278.3290: real time     40.0134
 BZINTS: Fermi energy:    1.289980;  574.000000 electrons
         Band energy:-0.439585E+04;  BLOECHL correction:   -0.006484
       DOS:  cpu time      0.4896: real time      0.0700
    CHARGE:  cpu time      1.7515: real time      0.4542
    MIXING:  cpu time      0.1281: real time      0.0186
    --------------------------------------------
      LOOP:  cpu time    280.6989: real time     40.5562

 eigenvalue-minimisations  : 24808
 total energy-change (2. order) :-0.3372889E+01  (-0.3184723E+01)
 number of electron     574.0000234 magnetization      62.9536836
 augmentation part      261.5409793 magnetization      44.3740578

 DIPCOR: dipole corrections for dipol
 direction  3 min pos   236,
 dipolmoment           0.000000      0.000000     -0.000128 electrons x Angstroem
 Tr[quadrupol]     -7067.124993

 energy correction for charged system         0.000000 eV
 dipol+quadrupol energy correction           -0.000000 eV
 added-field ion interaction         -0.001726 eV  (added to PSCEN)


 Broyden mixing:
  rms(total) = 0.93700E+01    rms(broyden)= 0.93675E+01
  rms(prec ) = 0.10457E+02
  weight for this iteration     100.00

 Free energy of the ion-electron system (eV)
  ---------------------------------------------------
  alpha Z        PSCENC =      1868.92837392
  Ewald energy   TEWEN  =    210398.21261031
  -Hartree energ DENC   =   -262278.73829603
  -exchange      EXHF   =         0.00000000
  -V(xc)+E(xc)   XCENC  =       998.79840716
  PAW double counting   =     46919.87437312   -47958.31232237
  entropy T*S    EENTRO =         0.00000000
  eigenvalues    EBANDS =     -4395.85283176
  atomic energy  EATOM  =     53853.58386974
  Solvation  Ediel_sol  =         0.00000000
  ---------------------------------------------------
  free energy    TOTEN  =      -593.50581591 eV

  energy without entropy =     -593.50581591  energy(sigma->0) =     -593.50581591


--------------------------------------------------------------------------------------------------------




--------------------------------------- Iteration      1(   6)  ---------------------------------------


    POTLOK:  cpu time      6.8735: real time      1.4346
    SETDIJ:  cpu time      0.9438: real time      0.1348
     EDDAV:  cpu time    302.3263: real time     43.4172
 BZINTS: Fermi energy:    2.500575;  574.000000 electrons
         Band energy:-0.383355E+04;  BLOECHL correction:   -0.023099
       DOS:  cpu time      0.5630: real time      0.0811
    CHARGE:  cpu time      1.7105: real time      0.4543
    MIXING:  cpu time      0.1323: real time      0.0190
    --------------------------------------------
      LOOP:  cpu time    312.5495: real time     45.5409

 eigenvalue-minimisations  : 27336
 total energy-change (2. order) :-0.1435121E+03  (-0.3643589E+02)
 number of electron     574.0000256 magnetization      61.2493499
 augmentation part      260.8832465 magnetization      53.4696087

 DIPCOR: dipole corrections for dipol
 direction  3 min pos   236,
 dipolmoment           0.000000      0.000000      1.595257 electrons x Angstroem
 Tr[quadrupol]     -7091.547366

 energy correction for charged system         0.000000 eV
 dipol+quadrupol energy correction           -0.134594 eV
 added-field ion interaction         21.472521 eV  (added to PSCEN)


 Broyden mixing:
  rms(total) = 0.15174E+02    rms(broyden)= 0.15173E+02
  rms(prec ) = 0.20660E+02
  weight for this iteration     100.00

 eigenvalues of (default mixing * dielectric matrix)
  average eigenvalue GAMMA=   0.2535
  0.2535

 Free energy of the ion-electron system (eV)
  ---------------------------------------------------
  alpha Z        PSCENC =      1890.26802650
  Ewald energy   TEWEN  =    210398.21261031
  -Hartree energ DENC   =   -263011.34947417
  -exchange      EXHF   =         0.00000000
  -V(xc)+E(xc)   XCENC  =       990.67582542
  PAW double counting   =     47208.46148317   -48233.32082904
  entropy T*S    EENTRO =         0.00000000
  eigenvalues    EBANDS =     -3833.54944961
  atomic energy  EATOM  =     53853.58386974
  Solvation  Ediel_sol  =         0.00000000
  ---------------------------------------------------
  free energy    TOTEN  =      -737.01793767 eV

  energy without entropy =     -737.01793767  energy(sigma->0) =     -737.01793767


--------------------------------------------------------------------------------------------------------




--------------------------------------- Iteration      1(   7)  ---------------------------------------


    POTLOK:  cpu time      6.8738: real time      1.4326
    SETDIJ:  cpu time      0.9438: real time      0.1349
     EDDAV:  cpu time    307.7585: real time     44.2149
 BZINTS: Fermi energy:    1.997660;  574.000000 electrons
         Band energy:-0.417470E+04;  BLOECHL correction:   -0.010263
       DOS:  cpu time      0.5673: real time      0.0817
    CHARGE:  cpu time      1.6885: real time      0.4528
    MIXING:  cpu time      0.1012: real time      0.0144
    --------------------------------------------
      LOOP:  cpu time    317.9332: real time     46.3314

 eigenvalue-minimisations  : 27848
 total energy-change (2. order) : 0.3098608E+02  (-0.4191667E+02)
 number of electron     574.0000168 magnetization      59.8715220
 augmentation part      264.5814661 magnetization      52.8058618

 DIPCOR: dipole corrections for dipol
 direction  3 min pos   239,
 dipolmoment           0.000000      0.000000     -1.629481 electrons x Angstroem
 Tr[quadrupol]     -7078.766554

 energy correction for charged system         0.000000 eV
 dipol+quadrupol energy correction           -0.140431 eV
 added-field ion interaction        -42.776098 eV  (added to PSCEN)


 Broyden mixing:
  rms(total) = 0.14952E+02    rms(broyden)= 0.14951E+02
  rms(prec ) = 0.22952E+02
  weight for this iteration     100.00

 eigenvalues of (default mixing * dielectric matrix)
  average eigenvalue GAMMA=   0.2065
  0.3017  0.1112

 Free energy of the ion-electron system (eV)
  ---------------------------------------------------
  alpha Z        PSCENC =      1826.01357111
  Ewald energy   TEWEN  =    210398.21261031
  -Hartree energ DENC   =   -262575.98462128
  -exchange      EXHF   =         0.00000000
  -V(xc)+E(xc)   XCENC  =       988.53349024
  PAW double counting   =     47288.74634194   -48310.43891706
  entropy T*S    EENTRO =         0.00000000
  eigenvalues    EBANDS =     -4174.69820346
  atomic energy  EATOM  =     53853.58386974
  Solvation  Ediel_sol  =         0.00000000
  ---------------------------------------------------
  free energy    TOTEN  =      -706.03185847 eV

  energy without entropy =     -706.03185847  energy(sigma->0) =     -706.03185847


--------------------------------------------------------------------------------------------------------




--------------------------------------- Iteration      1(   8)  ---------------------------------------


    POTLOK:  cpu time      6.8403: real time      1.4266
    SETDIJ:  cpu time      0.9442: real time      0.1349
     EDDAV:  cpu time    305.2078: real time     43.8636
 BZINTS: Fermi energy:    1.355853;  574.000000 electrons
         Band energy:-0.424934E+04;  BLOECHL correction:   -0.009952
       DOS:  cpu time      0.5234: real time      0.0748
    CHARGE:  cpu time      1.7068: real time      0.4490
    MIXING:  cpu time      0.1101: real time      0.0157
    --------------------------------------------
      LOOP:  cpu time    315.3325: real time     45.9646

 eigenvalue-minimisations  : 27512
 total energy-change (2. order) : 0.1441768E+03  (-0.2014453E+02)
 number of electron     574.0000249 magnetization      58.4465588
 augmentation part      265.5108531 magnetization      43.9830402

 DIPCOR: dipole corrections for dipol
 direction  3 min pos   235,
 dipolmoment           0.000000      0.000000      0.592108 electrons x Angstroem
 Tr[quadrupol]     -7076.648753

 energy correction for charged system         0.000000 eV
 dipol+quadrupol energy correction           -0.018542 eV
 added-field ion interaction          5.445324 eV  (added to PSCEN)


 Broyden mixing:
  rms(total) = 0.91159E+01    rms(broyden)= 0.91136E+01
  rms(prec ) = 0.11426E+02
  weight for this iteration     100.00

 eigenvalues of (default mixing * dielectric matrix)
  average eigenvalue GAMMA=   0.3648
  0.5089  0.5089  0.0767

 Free energy of the ion-electron system (eV)
  ---------------------------------------------------
  alpha Z        PSCENC =      1874.35688143
  Ewald energy   TEWEN  =    210398.21261031
  -Hartree energ DENC   =   -262406.25660680
  -exchange      EXHF   =         0.00000000
  -V(xc)+E(xc)   XCENC  =       987.00593677
  PAW double counting   =     47363.16426293   -48382.58582802
  entropy T*S    EENTRO =         0.00000000
  eigenvalues    EBANDS =     -4249.33620745
  atomic energy  EATOM  =     53853.58386974
  Solvation  Ediel_sol  =         0.00000000
  ---------------------------------------------------
  free energy    TOTEN  =      -561.85508108 eV

  energy without entropy =     -561.85508108  energy(sigma->0) =     -561.85508108


--------------------------------------------------------------------------------------------------------




--------------------------------------- Iteration      1(   9)  ---------------------------------------


    POTLOK:  cpu time      6.7831: real time      1.4193
    SETDIJ:  cpu time      0.9443: real time      0.1349
     EDDAV:  cpu time    290.3413: real time     41.6376
 BZINTS: Fermi energy:    1.139389;  574.000000 electrons
         Band energy:-0.437408E+04;  BLOECHL correction:   -0.010680
       DOS:  cpu time      0.5790: real time      0.0834
    CHARGE:  cpu time      1.6631: real time      0.4493
    MIXING:  cpu time      0.1090: real time      0.0156
    --------------------------------------------
      LOOP:  cpu time    300.4197: real time     43.7400

 eigenvalue-minimisations  : 25936
 total energy-change (2. order) : 0.2131112E+02  (-0.7635814E+01)
 number of electron     574.0000219 magnetization      57.6474276
 augmentation part      268.0480941 magnetization      39.4580522

 DIPCOR: dipole corrections for dipol
 direction  3 min pos   235,
 dipolmoment           0.000000      0.000000     -0.037766 electrons x Angstroem
 Tr[quadrupol]     -7075.577774

 energy correction for charged system         0.000000 eV
 dipol+quadrupol energy correction           -0.000075 eV
 added-field ion interaction         -0.347313 eV  (added to PSCEN)


 Broyden mixing:
  rms(total) = 0.69708E+01    rms(broyden)= 0.69697E+01
  rms(prec ) = 0.74820E+01
  weight for this iteration     100.00

 eigenvalues of (default mixing * dielectric matrix)
  average eigenvalue GAMMA=   0.5721
  1.4895  0.3603  0.3603  0.0784

 Free energy of the ion-electron system (eV)
  ---------------------------------------------------
  alpha Z        PSCENC =      1868.58271142
  Ewald energy   TEWEN  =    210398.21261031
  -Hartree energ DENC   =   -262256.25819960
  -exchange      EXHF   =         0.00000000
  -V(xc)+E(xc)   XCENC  =       982.00162231
  PAW double counting   =     47575.00515632   -48587.59135437
  entropy T*S    EENTRO =         0.00000000
  eigenvalues    EBANDS =     -4374.08037916
  atomic energy  EATOM  =     53853.58386974
  Solvation  Ediel_sol  =         0.00000000
  ---------------------------------------------------
  free energy    TOTEN  =      -540.54396302 eV

  energy without entropy =     -540.54396302  energy(sigma->0) =     -540.54396302


--------------------------------------------------------------------------------------------------------




--------------------------------------- Iteration      1(  10)  ---------------------------------------


    POTLOK:  cpu time      6.9617: real time      1.4473
    SETDIJ:  cpu time      0.9608: real time      0.1377
     EDDAV:  cpu time    277.7704: real time     39.7963
 BZINTS: Fermi energy:    0.716714;  574.000000 electrons
         Band energy:-0.457423E+04;  BLOECHL correction:   -0.003343
       DOS:  cpu time      0.5863: real time      0.0847
    CHARGE:  cpu time      1.6630: real time      0.4485
    MIXING:  cpu time      0.1127: real time      0.0161
    --------------------------------------------
      LOOP:  cpu time    288.0549: real time     41.9305

 eigenvalue-minimisations  : 24696
 total energy-change (2. order) : 0.1520328E+02  (-0.4929023E+01)
 number of electron     574.0000257 magnetization      56.0174550
[...]
  206        set_dd_paw                            0.081592                            1   3
  207          m_sumb_d                              0.000909                          7   4
  208        strkin                                0.070481                            1   3
  209          m_sumb_d                              0.000040                          1   4
  210        strelo                                0.006216                            1   3
  211          m_sumb_d                              0.000011                          2   4
  212        strnlr                                9.562406                            1   3
  213          rspher_all                            0.526287                          9   4
  214          phaser                                1.518672                         90   4
  215          rpro_isp                              7.402883                         90   4
  216            fftwav_mpi                            0.411948                    16920   5
  217              fftwav                                0.386990                  16920   6
  218                fft3d                                 0.236262                16920   7
  219            rpromu_acc                            6.929255                     4320   5
  220          m_sumb_d                              0.022882                          1   4
  221        fft3d_mpi                             0.292791                           22   3
  222          fftbrc_mpi                            0.271727                         22   4
  223            fftbas_plan_mpi                       0.271698                       22   5
  224              dfftw_execute                         0.071952                     66   6
  225              map_forward                           0.082075                     20   6
  226                map_gather                            0.017546                   10   7
  227                m_alltoallv_z                         0.038553                   10   7
  228                map_scatter                           0.025875                   10   7
  229              map_backward                          0.115634                     24   6
  230                map_gather                            0.010001                   12   7
  231                m_alltoallv_z                         0.050924                   12   7
  232                map_scatter                           0.054588                   12   7
  233        m_sumb_d                              0.000050                            5   3
  234        forhar                                0.094788                            2   3
  235          m_sumb_d                              0.002772                          2   4
  236        strehar                               0.004201                            1   3
  237          m_sumb_d                              0.000013                          1   4
  238        chggra                                0.083745                            1   3
  239          fft3d_mpi                             0.079402                          3   4
  240            fftbrc_mpi                            0.078063                        3   5
  241              fftbas_plan_mpi                       0.078058                      3   6
  242                map_forward                           0.039852                    4   7
  243                  map_gather                            0.000010                  2   8
  244                  m_alltoallv_z                         0.039813                  2   8
  245                  map_scatter                           0.000011                  2   8
  246                map_backward                          0.000042                    2   7
  247                  map_gather                            0.000004                  1   8
  248                  m_alltoallv_z                         0.000015                  1   8
  249                  map_scatter                           0.000016                  1   8
  250          m_sumb_d                              0.000027                          2   4
  251          pothar                                0.000441                          1   4
  252            m_sumb_d                              0.000038                        1   5
  253        brmix                                 0.130391                            1   3
  254          m_sumb_d                              0.000144                          6   4
  255          brpre                                 0.000236                          2   4
  256          setg0                                 0.006681                          1   4
  257          broyd                                 0.117248                          1   4
  258            brget                                 0.009831                      326   5
  259            brsav                                 0.019890                      163   5
  260            m_sumb_d                              0.012135                       47   5
  261        m_bcast_d                             0.000049                            2   3
  262      potlok                                1.434983                              1   2
  263        fft3d_mpi                             0.285252                           26   3
  264          fftbrc_mpi                            0.257232                         26   4
  265            fftbas_plan_mpi                       0.257198                       26   5
  266              dfftw_execute                         0.078251                     78   6
  267              map_forward                           0.083230                     28   6
  268                map_gather                            0.022941                   16   7
  269                m_alltoallv_z                         0.047234                   16   7
  270                map_scatter                           0.012941                   16   7
  271              map_backward                          0.093295                     24   6
  272                map_gather                            0.010211                   12   7
  273                m_alltoallv_z                         0.049984                   12   7
  274                map_scatter                           0.032995                   12   7
  275        m_sumb_d                              0.000157                            8   3
  276        fewald                                0.000087                            2   3
  277          rsp                                   0.000054                          2   4
  278          rcp                                   0.000030                          2   4
  279        pothar                                0.008964                            1   3
  280          m_sumb_d                              0.001443                          1   4
  281        m_bcast_d                             0.003497                            2   3
  282      potlok_metagga                        0.000000                              1   2
  283      set_dd_magatom                        0.000007                              1   2
  284      set_dd_paw                            0.081486                              1   2
  285        m_sumb_d                              0.000939                            7   3
  286      m_bcast_d                             0.000028                              2   2
  287      fftwav_mpi                           20.301391                           5640   2
  288        fftwav                               20.264007                         5640   3
  289          fft3d                                14.191942                       5640   4
  290      densta                                0.077735                              1   2
 
 Flat profile
 ============
 
             routine name                   CPU           calls
 ---------------------------------------------------------------
 eddav                                1046.816742          50
 lapack                                230.639837      198436
 m_sumb_d                              217.180657      608583
 rpromu_acc                            103.861133      157676
 hamiltmu                               87.577618      198436
 total_time                             82.005976           1
 potlok                                 53.276076          47
 racc0mu_acc                            46.127120      198436
 newband                                45.986256      199436
 m_alltoall_d                           40.948088     2881504
 fft3d                                  31.764387     1193362
 orth1                                  25.449469      595328
 raccmu_                                22.923172      198436
 phaser                                 19.063522        1130
 overl_mu                               17.934381      198436
 w1_copy                                13.433837     1190616
 fftwav                                 12.247035      796490
 redis_pw                               11.941435     1098656
 ggemm                                  11.377055      245436
 m_bcast_z                               7.445365      205956
 redis_proj                              6.966826     1401548
 m_alltoallv_z                           6.131471        1662
 overl                                   5.658845      699764
 setdij_                                 3.943825          74
 dfftw_execute                           3.895990        4359
 densta                                  3.878647          51
 set_dd_paw                              3.865209          48
 lincom                                  3.282793        1020
 map_scatter                             2.374589        1662
 augmentation_charge                     2.346639          46
 eccp                                    2.028399       94000
 m_bcast_d                               2.025374      396970
 fft3d_mpi                               1.938637      398328
 kinhamil                                1.880850      396872
 fftext_mpi                              1.831384      396872
 map_gather                              1.549892        1662
 vhamil                                  1.517640      396872
 broyd                                   1.444692          46
 fftwav_mpi                              1.374271      796490
 apply_precond                           1.352808      302872
 force_and_stress                        1.226845           1
 elmin                                   1.168576           1
 depsum                                  1.142720          46
 orthch                                  0.867384           1
 rspher_all                              0.770307          14
 setup_precond                           0.706242       94000
 fftbas_plan_mpi                         0.444739        1456
 init_hip                                0.423478           1
 pothar                                  0.351705          48
 choleski                                0.338489          20
 setg0                                   0.292088          48
 brmix                                   0.288528          46
 soft_charge                             0.263622          46
 proall                                  0.180818           1
 pw_charge                               0.174257       66666
 set_charge                              0.162114          46
 brget                                   0.157576        5675
 w1_projall                              0.146301      151436
 brsav                                   0.133569        1386
 forhar                                  0.092016           2
 strnlr                                  0.091681           1
 rpro_isp                                0.087370         130
 stufak                                  0.072478           1
 truncate_high_frequency_w1              0.072064      490872
 strkin                                  0.070441           1
 forloc                                  0.046812           1
 fft_gq                                  0.034375          46
 fornlr                                  0.029657           1
 inisym                                  0.011825           1
 brpre                                   0.011301          92
 rsp                                     0.006911          95
 strelo                                  0.006205           1
 map_backward                            0.005872        1534
 map_forward                             0.005546        1378
 brgrid                                  0.004248           1
 strehar                                 0.004188           1
 chggra                                  0.003875           1
 hip_hipfft_makeplan                     0.003572           6
 fftbrc_mpi                              0.001849        1456
 fewald                                  0.001733          95
 rcp                                     0.001702          95
 set_dd_magatom                          0.000359          48
 vectorpot                               0.000347          47
 fordep                                  0.000195           1
 hip_init_hipblas                        0.000191           1
 hip_init_rocsolver                      0.000067           1
 crpa_reader                             0.000057           1
 potlok_metagga                          0.000041          47
 posmap                                  0.000018           2
 rotate_active_occupied_orbital          0.000007           1
 hip_hipfft_makeplans                    0.000004           3
 redis_pw_over_bands                     0.000000           1
 ---------------------------------------------------------------
  summed up times    2197.19430494308     
 
 Accumulative profile
 ====================
 
             routine name                   CPU           calls
 ---------------------------------------------------------------
 total_time                           2197.194305           1
 elmin                                2062.797966           1
 eddav                                1963.153322          50
 lapack                                230.639837      198436
 m_sumb_d                              217.180657      608583
 hamiltmu                              185.673048      198436
 rpromu_acc                            103.861133      157676
 w1_projall                             93.980966      151436
 raccmu_                                86.984673      198436
 potlok                                 67.265123          47
 newband                                57.246712      199436
 racc0mu_acc                            46.127120      198436
 m_alltoall_d                           40.948088     2881504
 fftwav_mpi                             39.748844      796490
 fftwav                                 38.374573      796490
 redis_pw                               32.609128     1098656
 fft3d                                  31.764387     1193362
 redis_proj                             27.247221     1401548
 orth1                                  25.449469      595328
 fft3d_mpi                              21.985434      398328
 set_charge                             20.653679          46
 phaser                                 19.063522        1130
 overl_mu                               17.934381      198436
 force_and_stress                       16.665298           1
 soft_charge                            15.887856          46
 fftbrc_mpi                             14.409948        1456
 fftbas_plan_mpi                        14.408099        1456
 w1_copy                                13.433837     1190616
 ggemm                                  11.377055      245436
 rpro_isp                               10.929568         130
 kinhamil                                9.593119      396872
 strnlr                                  9.562406           1
 fftext_mpi                              7.712269      396872
 m_bcast_z                               7.445365      205956
 m_alltoallv_z                           6.131471        1662
 overl                                   5.658845      699764
 map_backward                            5.544525        1534
 orthch                                  5.222956           1
 map_forward                             4.522845        1378
 setdij_                                 4.013129          74
 set_dd_paw                              3.910189          48
 dfftw_execute                           3.895990        4359
 densta                                  3.878647          51
 augmentation_charge                     3.410779          46
 lincom                                  3.282793        1020
 fornlr                                  3.182266           1
 brmix                                   2.550979          46
 map_scatter                             2.374589        1662
 eccp                                    2.028399       94000
 m_bcast_d                               2.025374      396970
 broyd                                   1.941544          46
 map_gather                              1.549892        1662
 vhamil                                  1.517640      396872
 proall                                  1.417637           1
 apply_precond                           1.352808      302872
 depsum                                  1.192930          46
 rspher_all                              0.770307          14
 setup_precond                           0.706242       94000
 fft_gq                                  0.619138          46
 init_hip                                0.423478           1
 pothar                                  0.407445          48
 fordep                                  0.357049           1
 choleski                                0.338489          20
 setg0                                   0.292088          48
 pw_charge                               0.174257       66666
 brget                                   0.157576        5675
 brsav                                   0.133569        1386
 forhar                                  0.094788           2
 chggra                                  0.083745           1
 stufak                                  0.072478           1
 truncate_high_frequency_w1              0.072064      490872
 strkin                                  0.070481           1
 forloc                                  0.048934           1
 inisym                                  0.011843           1
 brpre                                   0.011301          92
 fewald                                  0.010456          95
 rsp                                     0.006911          95
 strelo                                  0.006216           1
 brgrid                                  0.004248           1
 strehar                                 0.004201           1
 hip_hipfft_makeplans                    0.003576           3
 hip_hipfft_makeplan                     0.003572           6
 rcp                                     0.001702          95
 set_dd_magatom                          0.000359          48
 vectorpot                               0.000347          47
 hip_init_hipblas                        0.000191           1
 hip_init_rocsolver                      0.000067           1
 crpa_reader                             0.000057           1
 potlok_metagga                          0.000041          47
 posmap                                  0.000018           2
 rotate_active_occupied_orbital          0.000007           1
 redis_pw_over_bands                     0.000000           1
 ---------------------------------------------------------------
 
Profiling took   4.393513  1.768425  0.002920  0.002759 seconds
Profiling took   2.482737 seconds
