<?xml version="1.0" encoding="ISO-8859-1"?>
<modeling>
 <generator>
  <i name="program" type="string">vasp </i>
  <i name="version" type="string">6.3.2  </i>
  <i name="subversion" type="string">27Jun22 (build Mar 15 2023 15:45:48) complex                          parallel </i>
  <i name="platform" type="string">LinuxIFC </i>
  <i name="date" type="string">2025 02 10 </i>
  <i name="time" type="string">23:36:02 </i>
 </generator>
 <incar>
  <i type="string" name="SYSTEM">ni3al</i>
  <i type="int" name="ISTART">     0</i>
  <i type="string" name="PREC">Accurate</i>
  <i type="string" name="ALGO">Normal</i>
  <i type="int" name="ISPIN">     2</i>
  <i type="int" name="IMIX">     4</i>
  <i name="AMIX">      0.05000000</i>
  <i name="BMIX">      0.00010000</i>
  <i name="AMIN">      0.01000000</i>
  <i type="int" name="ICHARG">     2</i>
  <i type="int" name="NELM">   150</i>
  <i type="int" name="IBRION">    -1</i>
  <i name="EDIFF">      0.00001000</i>
  <i type="int" name="NSW">     0</i>
  <i type="int" name="ISIF">     2</i>
  <i name="ENCUT">    450.00000000</i>
  <i type="string" name="LREAL">Auto</i>
  <i type="int" name="ISMEAR">    -5</i>
  <i name="SIGMA">      0.10000000</i>
  <i type="int" name="LMAXMIX">     4</i>
  <i type="logical" name="LWAVE"> T  </i>
  <i type="logical" name="LCHARG"> T  </i>
  <i type="logical" name="LELF"> T  </i>
  <i type="logical" name="LDIPOL"> T  </i>
  <i type="int" name="IDIPOL">     3</i>
 </incar>
 <primitive_cell>
  <structure name="primitive_cell" >
   <crystal>
    <varray name="basis" >
     <v>       8.53269958       0.00000000       0.00000000 </v>
     <v>      -0.00051933       8.49699972       0.00000000 </v>
     <v>       0.00000000       0.00000000      23.59499931 </v>
    </varray>
    <i name="volume">   1710.69280467 </i>
    <varray name="rec_basis" >
     <v>       0.11719620       0.00000716       0.00000000 </v>
     <v>       0.00000000       0.11768860       0.00000000 </v>
     <v>       0.00000000       0.00000000       0.04238186 </v>
    </varray>
   </crystal>
   <varray name="positions" >
    <v>       0.00086000       0.99993000       0.24271000 </v>
    <v>       0.16724123       0.16532663       0.30394339 </v>
    <v>       0.49829084       0.16380705       0.29955680 </v>
    <v>       0.66822000       0.00107000       0.24272000 </v>
    <v>       0.83672777       0.17037063       0.30156466 </v>
    <v>       0.00044000       0.33497000       0.24240000 </v>
    <v>       0.16753604       0.50071261       0.30462257 </v>
    <v>       0.33469000       0.33305000       0.24267000 </v>
    <v>       0.50427462       0.50218336       0.30069597 </v>
    <v>       0.82993285       0.50069935       0.30131577 </v>
    <v>       0.16768928       0.83389898       0.30664764 </v>
    <v>       0.33342000       0.66555000       0.24261000 </v>
    <v>       0.83481450       0.83386474       0.30408702 </v>
    <v>       0.00064000       0.00119000       0.00199000 </v>
    <v>       0.98884752       0.00965484       0.36258730 </v>
    <v>       0.16843000       0.16962000       0.06269000 </v>
    <v>       0.33460000       0.00297000       0.00254000 </v>
    <v>       0.34672770       0.01228145       0.36373375 </v>
    <v>       0.50463000       0.16850000       0.06120000 </v>
    <v>       0.83272000       0.16670000       0.06193000 </v>
    <v>       0.00004000       0.33467000       0.00213000 </v>
    <v>       0.00136425       0.33153553       0.36061831 </v>
    <v>       0.16757000       0.49895000       0.06268000 </v>
    <v>       0.50099000       0.49896000       0.06206000 </v>
    <v>       0.83393000       0.50234000       0.06235000 </v>
    <v>       0.00121000       0.66785000       0.00188000 </v>
    <v>       0.98965477       0.65839557       0.36110335 </v>
    <v>       0.16792000       0.83462000       0.06228000 </v>
    <v>       0.33437000       0.66664000       0.00225000 </v>
    <v>       0.34755001       0.65398105       0.36270453 </v>
    <v>       0.50152000       0.83563000       0.06217000 </v>
    <v>       0.66753000       0.66705000       0.00175000 </v>
    <v>       0.66094744       0.67320425       0.36128660 </v>
    <v>       0.83293000       0.83584000       0.06235000 </v>
    <v>       0.00121000       0.00098000       0.12225000 </v>
    <v>       0.16700000       0.16811000       0.18239000 </v>
    <v>       0.33470000       0.00227000       0.12192000 </v>
    <v>       0.50174000       0.16716000       0.18263000 </v>
    <v>       0.83421000       0.16639000       0.18283000 </v>
    <v>       0.16964000       0.49868000       0.18209000 </v>
    <v>       0.50219000       0.50081000       0.18317000 </v>
    <v>       0.66741000       0.33395000       0.12233000 </v>
    <v>       0.83134000       0.50253000       0.18283000 </v>
    <v>       0.00132000       0.66795000       0.12253000 </v>
    <v>       0.16898000       0.83509000       0.18243000 </v>
    <v>       0.33446000       0.66703000       0.12223000 </v>
    <v>       0.49971000       0.83538000       0.18278000 </v>
    <v>       0.66698000       0.66840000       0.12259000 </v>
    <v>       0.83488000       0.83403000       0.18294000 </v>
    <v>       0.33558000       0.99863000       0.24353000 </v>
    <v>       0.66801000       0.33262000       0.24229000 </v>
    <v>       0.00448000       0.66739000       0.24217000 </v>
    <v>       0.49499758       0.83444516       0.30142438 </v>
    <v>       0.66521000       0.67351000       0.24327000 </v>
    <v>       0.66620000       0.99680000       0.00000000 </v>
    <v>       0.66836834       0.00980947       0.36235523 </v>
    <v>       0.33213000       0.33386000       0.00135000 </v>
    <v>       0.34218053       0.33245841       0.36351972 </v>
    <v>       0.67040000       0.33673000       0.00321000 </v>
    <v>       0.65956162       0.32944426       0.37073792 </v>
    <v>       0.66728000       0.99998000       0.12246000 </v>
    <v>       0.99806000       0.33495000       0.12235000 </v>
    <v>       0.33675000       0.33238000       0.12261000 </v>
    <v>       0.16861731       0.83212528       0.43627039 </v>
   </varray>
  </structure>
  <varray name="primitive_index" >
   <v type="int" >        1 </v>
   <v type="int" >        2 </v>
   <v type="int" >        3 </v>
   <v type="int" >        4 </v>
   <v type="int" >        5 </v>
   <v type="int" >        6 </v>
   <v type="int" >        7 </v>
   <v type="int" >        8 </v>
   <v type="int" >        9 </v>
   <v type="int" >       10 </v>
   <v type="int" >       11 </v>
   <v type="int" >       12 </v>
   <v type="int" >       13 </v>
   <v type="int" >       14 </v>
   <v type="int" >       15 </v>
   <v type="int" >       16 </v>
   <v type="int" >       17 </v>
   <v type="int" >       18 </v>
   <v type="int" >       19 </v>
   <v type="int" >       20 </v>
   <v type="int" >       21 </v>
   <v type="int" >       22 </v>
   <v type="int" >       23 </v>
   <v type="int" >       24 </v>
   <v type="int" >       25 </v>
   <v type="int" >       26 </v>
   <v type="int" >       27 </v>
   <v type="int" >       28 </v>
   <v type="int" >       29 </v>
   <v type="int" >       30 </v>
   <v type="int" >       31 </v>
   <v type="int" >       32 </v>
   <v type="int" >       33 </v>
   <v type="int" >       34 </v>
   <v type="int" >       35 </v>
   <v type="int" >       36 </v>
   <v type="int" >       37 </v>
   <v type="int" >       38 </v>
   <v type="int" >       39 </v>
   <v type="int" >       40 </v>
   <v type="int" >       41 </v>
   <v type="int" >       42 </v>
   <v type="int" >       43 </v>
   <v type="int" >       44 </v>
   <v type="int" >       45 </v>
   <v type="int" >       46 </v>
   <v type="int" >       47 </v>
   <v type="int" >       48 </v>
   <v type="int" >       49 </v>
   <v type="int" >       50 </v>
   <v type="int" >       51 </v>
   <v type="int" >       52 </v>
   <v type="int" >       53 </v>
   <v type="int" >       54 </v>
   <v type="int" >       55 </v>
   <v type="int" >       56 </v>
   <v type="int" >       57 </v>
   <v type="int" >       58 </v>
   <v type="int" >       59 </v>
   <v type="int" >       60 </v>
   <v type="int" >       61 </v>
   <v type="int" >       62 </v>
   <v type="int" >       63 </v>
   <v type="int" >       64 </v>
  </varray>
 </primitive_cell>
 <kpoints>
  <generation param="Gamma">
   <v type="int" name="divisions">       4        4        1 </v>
   <v name="usershift">      0.00000000       0.00000000       0.00000000 </v>
   <v name="genvec1">      0.25000000       0.00000000       0.00000000 </v>
   <v name="genvec2">      0.00000000       0.25000000       0.00000000 </v>
   <v name="genvec3">      0.00000000       0.00000000       1.00000000 </v>
   <v name="shift">      0.00000000       0.00000000       0.00000000 </v>
  </generation>
  <varray name="kpointlist" >
   <v>       0.00000000       0.00000000       0.00000000 </v>
   <v>       0.25000000       0.00000000       0.00000000 </v>
   <v>       0.50000000       0.00000000       0.00000000 </v>
   <v>       0.00000000       0.25000000       0.00000000 </v>
   <v>       0.25000000       0.25000000       0.00000000 </v>
   <v>       0.50000000       0.25000000       0.00000000 </v>
   <v>      -0.25000000       0.25000000       0.00000000 </v>
   <v>       0.00000000       0.50000000       0.00000000 </v>
   <v>       0.25000000       0.50000000       0.00000000 </v>
   <v>       0.50000000       0.50000000       0.00000000 </v>
  </varray>
  <varray name="weights" >
   <v>       0.06250000 </v>
   <v>       0.12500000 </v>
   <v>       0.06250000 </v>
   <v>       0.12500000 </v>
   <v>       0.12500000 </v>
   <v>       0.12500000 </v>
   <v>       0.12500000 </v>
   <v>       0.06250000 </v>
   <v>       0.12500000 </v>
   <v>       0.06250000 </v>
  </varray>
  <varray name="tetrahedronlist"  type="int" >
   <v type="int" >        2        4        8        9        9 </v>
   <v type="int" >        2        4        7        9        9 </v>
   <v type="int" >        2        4        7        7        9 </v>
   <v type="int" >        2        4        8        8        9 </v>
   <v type="int" >        2        4        4        8        9 </v>
   <v type="int" >        2        4        4        7        9 </v>
   <v type="int" >        2        4        5        5        8 </v>
   <v type="int" >        2        5        5        8        9 </v>
   <v type="int" >        2        5        8        9        9 </v>
   <v type="int" >        2        4        4        5        8 </v>
   <v type="int" >        2        4        5        8        8 </v>
   <v type="int" >        2        5        8        8        9 </v>
   <v type="int" >        2        1        2        2        4 </v>
   <v type="int" >        2        2        2        4        5 </v>
   <v type="int" >        2        2        4        5        5 </v>
   <v type="int" >        2        1        1        2        4 </v>
   <v type="int" >        2        1        2        4        4 </v>
   <v type="int" >        2        2        4        4        5 </v>
   <v type="int" >        2        1        4        7        7 </v>
   <v type="int" >        2        1        2        7        7 </v>
   <v type="int" >        2        1        2        2        7 </v>
   <v type="int" >        2        1        4        4        7 </v>
   <v type="int" >        2        1        1        4        7 </v>
   <v type="int" >        2        1        1        2        7 </v>
   <v type="int" >        2        7        9       10       10 </v>
   <v type="int" >        2        6        7       10       10 </v>
   <v type="int" >        2        6        6        7       10 </v>
   <v type="int" >        2        7        9        9       10 </v>
   <v type="int" >        2        7        7        9       10 </v>
   <v type="int" >        2        6        7        7       10 </v>
   <v type="int" >        2        5        6        6        9 </v>
   <v type="int" >        2        6        6        9       10 </v>
   <v type="int" >        2        6        9       10       10 </v>
   <v type="int" >        2        5        5        6        9 </v>
   <v type="int" >        2        5        6        9        9 </v>
   <v type="int" >        2        6        9        9       10 </v>
   <v type="int" >        2        2        3        3        5 </v>
   <v type="int" >        2        3        3        5        6 </v>
   <v type="int" >        2        3        5        6        6 </v>
   <v type="int" >        2        2        2        3        5 </v>
   <v type="int" >        2        2        3        5        5 </v>
   <v type="int" >        2        3        5        5        6 </v>
   <v type="int" >        2        2        6        6        7 </v>
   <v type="int" >        2        2        3        6        6 </v>
   <v type="int" >        2        2        3        3        6 </v>
   <v type="int" >        2        2        6        7        7 </v>
   <v type="int" >        2        2        2        6        7 </v>
   <v type="int" >        2        2        2        3        6 </v>
  </varray>
  <i name="volumeweight">      0.01041667 </i>
 </kpoints>
 <parameters>
  <separator name="general" >
   <i type="string" name="SYSTEM">ni3al</i>
   <i type="logical" name="LCOMPAT"> F  </i>
  </separator>
  <separator name="electronic" >
   <i type="string" name="PREC">accura</i>
   <i name="ENMAX">    450.00000000</i>
   <i name="ENAUG">    519.42400000</i>
   <i name="EDIFF">      0.00001000</i>
   <i type="int" name="IALGO">    38</i>
   <i type="int" name="IWAVPR">    10</i>
   <i type="int" name="NBANDS">   376</i>
   <i type="int" name="NBANDSLOW">    -1</i>
   <i type="int" name="NBANDSHIGH">    -1</i>
   <i name="NELECT">    574.00000000</i>
   <i type="int" name="TURBO">     0</i>
   <i type="int" name="IRESTART">     0</i>
   <i type="int" name="NREBOOT">     0</i>
   <i type="int" name="NMIN">     0</i>
   <i name="EREF">      0.00000000</i>
   <separator name="electronic smearing" >
    <i type="int" name="ISMEAR">    -5</i>
    <i name="SIGMA">      0.10000000</i>
    <i name="KSPACING">      0.50000000</i>
    <i type="logical" name="KGAMMA"> T  </i>
    <i type="logical" name="KBLOWUP"> T  </i>
   </separator>
   <separator name="electronic projectors" >
    <i type="logical" name="LREAL"> T  </i>
    <v name="ROPT">     -0.00025000     -0.00025000     -0.00025000</v>
    <i type="int" name="LMAXPAW">  -100</i>
    <i type="int" name="LMAXMIX">     4</i>
    <i type="logical" name="NLSPLINE"> F  </i>
   </separator>
   <separator name="electronic startup" >
    <i type="int" name="ISTART">     0</i>
    <i type="int" name="ICHARG">     2</i>
    <i type="int" name="INIWAV">     1</i>
   </separator>
   <separator name="electronic spin" >
    <i type="int" name="ISPIN">     2</i>
    <i type="logical" name="LNONCOLLINEAR"> F  </i>
    <v name="MAGMOM">      1.00000000      1.00000000      1.00000000      1.00000000      1.00000000      1.00000000      1.00000000      1.00000000      1.00000000      1.00000000      1.00000000      1.00000000      1.00000000      1.00000000      1.00000000      1.00000000      1.00000000      1.00000000      1.00000000      1.00000000
      1.00000000      1.00000000      1.00000000      1.00000000      1.00000000      1.00000000      1.00000000      1.00000000      1.00000000      1.00000000      1.00000000      1.00000000      1.00000000      1.00000000      1.00000000      1.00000000      1.00000000      1.00000000      1.00000000      1.00000000
      1.00000000      1.00000000      1.00000000      1.00000000      1.00000000      1.00000000      1.00000000      1.00000000      1.00000000      1.00000000      1.00000000      1.00000000      1.00000000      1.00000000      1.00000000      1.00000000      1.00000000      1.00000000      1.00000000      1.00000000
      1.00000000      1.00000000      1.00000000      1.00000000</v>
    <i name="NUPDOWN">     -1.00000000</i>
    <i type="logical" name="LSORBIT"> F  </i>
    <v name="SAXIS">      0.00000000      0.00000000      1.00000000</v>
    <i type="logical" name="LSPIRAL"> F  </i>
    <v name="QSPIRAL">      0.00000000      0.00000000      0.00000000</v>
    <i type="logical" name="LZEROZ"> F  </i>
   </separator>
   <separator name="electronic exchange-correlation" >
    <i type="logical" name="LASPH"> F  </i>
    <i type="logical" name="LMETAGGA"> F  </i>
   </separator>
   <separator name="electronic convergence" >
    <i type="int" name="NELM">   150</i>
    <i type="int" name="NELMDL">    -5</i>
    <i type="int" name="NELMIN">     2</i>
    <i name="ENINI">    450.00000000</i>
    <separator name="electronic convergence detail" >
     <i type="logical" name="LDIAG"> T  </i>
     <i type="logical" name="LSUBROT"> F  </i>
     <i name="WEIMIN">      0.00000000</i>
     <i name="EBREAK">      0.00000001</i>
     <i name="DEPER">      0.30000000</i>
     <i type="int" name="NRMM">     4</i>
     <i name="TIME">      0.40000000</i>
    </separator>
   </separator>
   <separator name="electronic mixer" >
    <i name="AMIX">      0.05000000</i>
    <i name="BMIX">      0.00010000</i>
    <i name="AMIN">      0.01000000</i>
    <i name="AMIX_MAG">      0.20000000</i>
    <i name="BMIX_MAG">      0.00010000</i>
    <separator name="electronic mixer details" >
     <i type="int" name="IMIX">     4</i>
     <i type="logical" name="MIXFIRST"> F  </i>
     <i type="int" name="MAXMIX">   -45</i>
     <i name="WC">    100.00000000</i>
     <i type="int" name="INIMIX">     1</i>
     <i type="int" name="MIXPRE">     1</i>
     <i type="int" name="MREMOVE">     5</i>
    </separator>
   </separator>
   <separator name="electronic dipolcorrection" >
    <i type="logical" name="LDIPOL"> T  </i>
    <i type="logical" name="LMONO"> F  </i>
    <i type="int" name="IDIPOL">     3</i>
    <i name="EPSILON">      1.00000000</i>
    <v name="DIPOL">   -100.00000000   -100.00000000   -100.00000000</v>
    <i name="EFIELD">      0.00000000</i>
   </separator>
  </separator>
  <separator name="grids" >
   <i type="int" name="NGX">    60</i>
   <i type="int" name="NGY">    60</i>
   <i type="int" name="NGZ">   168</i>
   <i type="int" name="NGXF">   120</i>
   <i type="int" name="NGYF">   120</i>
   <i type="int" name="NGZF">   336</i>
   <i type="logical" name="ADDGRID"> F  </i>
  </separator>
  <separator name="ionic" >
   <i type="int" name="NSW">     0</i>
   <i type="int" name="IBRION">    -1</i>
   <i type="int" name="MDALGO">     0</i>
   <i type="int" name="ISIF">     2</i>
   <i name="PSTRESS">      0.00000000</i>
   <i name="EDIFFG">      0.00010000</i>
   <i type="int" name="NFREE">     0</i>
   <i name="POTIM">      0.50000000</i>
   <i name="SMASS">     -3.00000000</i>
   <i name="SCALEE">      1.00000000</i>
  </separator>
  <separator name="ionic md" >
   <i name="TEBEG">      0.00010000</i>
   <i name="TEEND">      0.00010000</i>
   <i type="int" name="NBLOCK">     1</i>
   <i type="int" name="KBLOCK">     1</i>
   <i type="int" name="NPACO">   256</i>
   <i name="APACO">     10.00000000</i>
  </separator>
  <separator name="symmetry" >
   <i type="int" name="ISYM">     2</i>
   <i name="SYMPREC">      0.00001000</i>
  </separator>
  <separator name="dos" >
   <i type="int" name="LORBIT">     0</i>
   <v name="RWIGS">     -1.00000000     -1.00000000     -1.00000000</v>
   <i type="int" name="NEDOS">   301</i>
   <i name="EMIN">     10.00000000</i>
   <i name="EMAX">    -10.00000000</i>
   <i name="EFERMI">      0.00000000</i>
  </separator>
  <separator name="writing" >
   <i type="int" name="NWRITE">     2</i>
   <i type="logical" name="LWAVE"> T  </i>
   <i type="logical" name="LDOWNSAMPLE"> F  </i>
   <i type="logical" name="LCHARG"> T  </i>
   <i type="logical" name="LPARD"> F  </i>
   <i type="logical" name="LVTOT"> F  </i>
   <i type="logical" name="LVHAR"> F  </i>
   <i type="logical" name="LELF"> T  </i>
   <i type="logical" name="LOPTICS"> F  </i>
   <v name="STM">      0.00000000      0.00000000      0.00000000      0.00000000      0.00000000      0.00000000      0.00000000</v>
  </separator>
  <separator name="performance" >
   <i type="int" name="NPAR">     4</i>
   <i type="int" name="NSIM">     4</i>
   <i type="int" name="NBLK">    -1</i>
   <i type="logical" name="LPLANE"> T  </i>
   <i type="logical" name="LSCALAPACK"> T  </i>
   <i type="logical" name="LSCAAWARE"> F  </i>
   <i type="logical" name="LSCALU"> F  </i>
   <i type="logical" name="LASYNC"> F  </i>
   <i type="logical" name="LORBITALREAL"> F  </i>
  </separator>
  <separator name="miscellaneous" >
   <i type="int" name="IDIOT">     3</i>
   <i type="int" name="PHON_NSTRUCT">    -1</i>
   <i type="logical" name="LMUSIC"> F  </i>
   <v name="POMASS">     55.84700000     51.99600000    207.20000000</v>
   <v name="DARWINR">      0.00000000      0.00000000      0.00000000</v>
   <v name="DARWINV">      1.00000000      1.00000000      1.00000000</v>
   <i type="logical" name="LCORR"> T  </i>
  </separator>
  <i type="logical" name="GGA_COMPAT"> T  </i>
  <i type="logical" name="LBERRY"> F  </i>
  <i type="int" name="ICORELEVEL">     0</i>
  <i type="logical" name="LDAU"> F  </i>
  <i type="int" name="I_CONSTRAINED_M">     0</i>
  <separator name="electronic exchange-correlation" >
   <i type="string" name="GGA">--</i>
   <i type="int" name="VOSKOWN">     0</i>
   <i type="logical" name="LHFCALC"> F  </i>
   <i type="string" name="PRECFOCK"></i>
   <i type="logical" name="LSYMGRAD"> F  </i>
   <i type="logical" name="LHFONE"> F  </i>
   <i type="logical" name="LRHFCALC"> F  </i>
   <i type="logical" name="LTHOMAS"> F  </i>
   <i type="logical" name="LMODELHF"> F  </i>
   <i type="logical" name="LFOCKACE"> F  </i>
   <i name="ENCUT4O">     -1.00000000</i>
   <i type="int" name="EXXOEP">     0</i>
   <i type="int" name="FOURORBIT">     0</i>
   <i name="AEXX">      0.00000000</i>
   <i name="HFALPHA">      0.00000000</i>
   <i name="MCALPHA">      0.00000000</i>
   <i name="ALDAX">      1.00000000</i>
   <i name="AGGAX">      1.00000000</i>
   <i name="ALDAC">      1.00000000</i>
   <i name="AGGAC">      1.00000000</i>
   <i type="int" name="NKREDX">     1</i>
   <i type="int" name="NKREDY">     1</i>
   <i type="int" name="NKREDZ">     1</i>
   <i type="logical" name="SHIFTRED"> F  </i>
   <i type="logical" name="ODDONLY"> F  </i>
   <i type="logical" name="EVENONLY"> F  </i>
   <i type="int" name="LMAXFOCK">     0</i>
   <i type="int" name="NMAXFOCKAE">     0</i>
   <i type="logical" name="LFOCKAEDFT"> F  </i>
   <i name="HFSCREEN">      0.00000000</i>
   <i name="HFSCREENC">      0.00000000</i>
   <i type="int" name="NBANDSGWLOW">     0</i>
  </separator>
  <separator name="vdW DFT" >
   <i type="logical" name="LUSE_VDW"> F  </i>
   <i name="Zab_VDW">     -0.84910000</i>
   <i name="PARAM1">      0.12340000</i>
   <i name="PARAM2">      1.00000000</i>
   <i name="PARAM3">      0.00000000</i>
  </separator>
  <separator name="model GW" >
   <i type="int" name="MODEL_GW">     0</i>
   <i name="MODEL_EPS0">     16.03774504</i>
   <i name="MODEL_ALPHA">      1.00000000</i>
  </separator>
  <separator name="linear response parameters" >
   <i type="logical" name="LEPSILON"> F  </i>
   <i type="logical" name="LRPA"> F  </i>
   <i type="logical" name="LNABLA"> F  </i>
   <i type="logical" name="LVEL"> F  </i>
   <i name="CSHIFT">      0.10000000</i>
   <i name="OMEGAMAX">     -1.00000000</i>
   <i name="DEG_THRESHOLD">      0.00200000</i>
   <i name="RTIME">     -0.10000000</i>
   <i name="WPLASMAI">      0.00000000</i>
   <v name="DFIELD">      0.00000000      0.00000000      0.00000000</v>
   <v name="WPLASMA">      0.00000000      0.00000000      0.00000000      0.00000000      0.00000000      0.00000000      0.00000000      0.00000000      0.00000000</v>
  </separator>
  <separator name="orbital magnetization" >
   <i type="logical" name="NUCIND"> F  </i>
   <v name="MAGPOS">      0.00000000      0.00000000      0.00000000</v>
   <i type="logical" name="LNICSALL"> T  </i>
   <i type="logical" name="ORBITALMAG"> F  </i>
   <i type="logical" name="LMAGBLOCH"> F  </i>
   <i type="logical" name="LCHIMAG"> F  </i>
   <i type="logical" name="LGAUGE"> T  </i>
   <i type="int" name="MAGATOM">     0</i>
   <v name="MAGDIPOL">      0.00000000      0.00000000      0.00000000</v>
   <v name="AVECCONST">      0.00000000      0.00000000      0.00000000</v>
  </separator>
  <separator name="response functions" >
   <i type="logical" name="LFINITE_TEMPERATURE"> F  </i>
   <i type="logical" name="LADDER"> F  </i>
   <i type="logical" name="LRPAFORCE"> F  </i>
   <i type="logical" name="LFXC"> F  </i>
   <i type="logical" name="LHARTREE"> T  </i>
   <i type="int" name="IBSE">     0</i>
   <v type="int" name="KPOINT">    -1     0     0     0</v>
   <i type="logical" name="LTCTC"> F  </i>
   <i type="logical" name="LTCTE"> F  </i>
   <i type="logical" name="LTETE"> F  </i>
   <i type="logical" name="LTRIPLET"> F  </i>
   <i type="logical" name="LFXCEPS"> F  </i>
   <i type="logical" name="LFXHEG"> F  </i>
   <i type="int" name="NATURALO">     2</i>
   <i type="logical" name="LHOLEGF"> F  </i>
   <i type="logical" name="L2ORDER"> F  </i>
   <i type="logical" name="LDMP1"> F  </i>
   <i type="logical" name="LMP2LT"> F  </i>
   <i type="logical" name="LSMP2LT"> F  </i>
   <i type="logical" name="LGWLF"> F  </i>
   <i name="ENCUTGW">     -2.00000000</i>
   <i name="ENCUTGWSOFT">     -2.00000000</i>
   <i name="ENCUTLF">     -1.00000000</i>
   <i type="logical" name="LESF_SPLINES"> F  </i>
   <i type="int" name="LMAXMP2">    -1</i>
   <i name="SCISSOR">      0.00000000</i>
   <i type="int" name="NOMEGA">     0</i>
   <i type="int" name="NOMEGAR">     0</i>
   <i type="int" name="NBANDSGW">    -1</i>
   <i type="int" name="NBANDSO">    -1</i>
   <i type="int" name="NBANDSV">    -1</i>
   <i type="int" name="NELMGW">     1</i>
   <i type="int" name="NELMHF">     1</i>
   <i type="int" name="DIM">     3</i>
   <i type="int" name="IESPILON">     4</i>
   <i type="int" name="ANTIRES">     0</i>
   <i name="OMEGAMAX">    -30.00000000</i>
   <i name="OMEGAMIN">    -30.00000000</i>
   <i name="OMEGATL">   -200.00000000</i>
   <i type="int" name="OMEGAGRID">     0</i>
   <i name="CSHIFT">     -0.10000000</i>
   <i type="logical" name="LSELFENERGY"> F  </i>
   <i type="logical" name="LSPECTRAL"> F  </i>
   <i type="logical" name="LSPECTRALGW"> F  </i>
   <i type="logical" name="LSINGLES"> F  </i>
   <i type="logical" name="LFERMIGW"> F  </i>
   <i type="logical" name="ODDONLYGW"> F  </i>
   <i type="logical" name="EVENONLYGW"> F  </i>
   <i type="int" name="NKREDLFX">     1</i>
   <i type="int" name="NKREDLFY">     1</i>
   <i type="int" name="NKREDLFZ">     1</i>
   <i type="int" name="MAXMEM">  2800</i>
   <i type="int" name="TELESCOPE">     0</i>
   <i type="int" name="NTAUPAR">    -1</i>
   <i type="int" name="NOMEGAPAR">    -1</i>
   <i name="DAMP_NEWTON">      0.80000001</i>
   <i name="LAMBDA">      1.00000000</i>
  </separator>
  <separator name="External order field" >
   <i name="OFIELD_KAPPA">      0.00000000</i>
   <v name="OFIELD_K">      0.00000000      0.00000000      0.00000000</v>
   <i name="OFIELD_Q6_NEAR">      0.00000000</i>
   <i name="OFIELD_Q6_FAR">      0.00000000</i>
   <i name="OFIELD_A">      0.00000000</i>
  </separator>
  <separator name="optional k-points parameters" >
   <i type="int" name="KPOINTS_OPT_MODE">     1</i>
   <i type="logical" name="LKPOINTS_OPT"> F  </i>
  </separator>
  <separator name="solvation model" >
   <i type="logical" name="LSOL"> F  </i>
  </separator>
 </parameters>
 <atominfo>
  <atoms>      64 </atoms>
  <types>       3 </types>
  <array name="atoms" >
   <dimension dim="1">ion</dimension>
   <field type="string">element</field>
   <field type="int">atomtype</field>
   <set>
    <rc><c>Fe</c><c>   1</c></rc>
    <rc><c>Fe</c><c>   1</c></rc>
    <rc><c>Fe</c><c>   1</c></rc>
    <rc><c>Fe</c><c>   1</c></rc>
    <rc><c>Fe</c><c>   1</c></rc>
    <rc><c>Fe</c><c>   1</c></rc>
    <rc><c>Fe</c><c>   1</c></rc>
    <rc><c>Fe</c><c>   1</c></rc>
    <rc><c>Fe</c><c>   1</c></rc>
    <rc><c>Fe</c><c>   1</c></rc>
    <rc><c>Fe</c><c>   1</c></rc>
    <rc><c>Fe</c><c>   1</c></rc>
    <rc><c>Fe</c><c>   1</c></rc>
    <rc><c>Fe</c><c>   1</c></rc>
    <rc><c>Fe</c><c>   1</c></rc>
    <rc><c>Fe</c><c>   1</c></rc>
    <rc><c>Fe</c><c>   1</c></rc>
    <rc><c>Fe</c><c>   1</c></rc>
    <rc><c>Fe</c><c>   1</c></rc>
    <rc><c>Fe</c><c>   1</c></rc>
    <rc><c>Fe</c><c>   1</c></rc>
    <rc><c>Fe</c><c>   1</c></rc>
    <rc><c>Fe</c><c>   1</c></rc>
    <rc><c>Fe</c><c>   1</c></rc>
    <rc><c>Fe</c><c>   1</c></rc>
    <rc><c>Fe</c><c>   1</c></rc>
    <rc><c>Fe</c><c>   1</c></rc>
    <rc><c>Fe</c><c>   1</c></rc>
    <rc><c>Fe</c><c>   1</c></rc>
    <rc><c>Fe</c><c>   1</c></rc>
    <rc><c>Fe</c><c>   1</c></rc>
    <rc><c>Fe</c><c>   1</c></rc>
    <rc><c>Fe</c><c>   1</c></rc>
    <rc><c>Fe</c><c>   1</c></rc>
    <rc><c>Fe</c><c>   1</c></rc>
    <rc><c>Fe</c><c>   1</c></rc>
    <rc><c>Fe</c><c>   1</c></rc>
    <rc><c>Fe</c><c>   1</c></rc>
    <rc><c>Fe</c><c>   1</c></rc>
    <rc><c>Fe</c><c>   1</c></rc>
    <rc><c>Fe</c><c>   1</c></rc>
    <rc><c>Fe</c><c>   1</c></rc>
    <rc><c>Fe</c><c>   1</c></rc>
    <rc><c>Fe</c><c>   1</c></rc>
    <rc><c>Fe</c><c>   1</c></rc>
    <rc><c>Fe</c><c>   1</c></rc>
    <rc><c>Fe</c><c>   1</c></rc>
    <rc><c>Fe</c><c>   1</c></rc>
    <rc><c>Fe</c><c>   1</c></rc>
    <rc><c>Cr</c><c>   2</c></rc>
    <rc><c>Cr</c><c>   2</c></rc>
    <rc><c>Cr</c><c>   2</c></rc>
    <rc><c>Cr</c><c>   2</c></rc>
    <rc><c>Cr</c><c>   2</c></rc>
    <rc><c>Cr</c><c>   2</c></rc>
    <rc><c>Cr</c><c>   2</c></rc>
    <rc><c>Cr</c><c>   2</c></rc>
    <rc><c>Cr</c><c>   2</c></rc>
    <rc><c>Cr</c><c>   2</c></rc>
    <rc><c>Cr</c><c>   2</c></rc>
    <rc><c>Cr</c><c>   2</c></rc>
    <rc><c>Cr</c><c>   2</c></rc>
    <rc><c>Cr</c><c>   2</c></rc>
    <rc><c>Pb</c><c>   3</c></rc>
   </set>
  </array>
  <array name="atomtypes" >
   <dimension dim="1">type</dimension>
   <field type="int">atomspertype</field>
   <field type="string">element</field>
   <field>mass</field>
   <field>valence</field>
   <field type="string">pseudopotential</field>
   <set>
    <rc><c>  49</c><c>Fe</c><c>     55.84700000</c><c>      8.00000000</c><c>  PAW_PBE Fe 06Sep2000                  </c></rc>
    <rc><c>  14</c><c>Cr</c><c>     51.99600000</c><c>     12.00000000</c><c>  PAW_PBE Cr_pv 02Aug2007               </c></rc>
    <rc><c>   1</c><c>Pb</c><c>    207.20000000</c><c>     14.00000000</c><c>  PAW_PBE Pb_d 06Sep2000                </c></rc>
   </set>
  </array>
 </atominfo>
 <structure name="initialpos" >
  <crystal>
   <varray name="basis" >
    <v>       8.53269958       0.00000000       0.00000000 </v>
    <v>      -0.00051933       8.49699972       0.00000000 </v>
    <v>       0.00000000       0.00000000      23.59499931 </v>
   </varray>
   <i name="volume">   1710.69280467 </i>
   <varray name="rec_basis" >
    <v>       0.11719620       0.00000716       0.00000000 </v>
    <v>       0.00000000       0.11768860       0.00000000 </v>
    <v>       0.00000000       0.00000000       0.04238186 </v>
   </varray>
  </crystal>
  <varray name="positions" >
   <v>       0.00086000       0.99993000       0.24271000 </v>
   <v>       0.16724123       0.16532663       0.30394339 </v>
   <v>       0.49829084       0.16380705       0.29955680 </v>
   <v>       0.66822000       0.00107000       0.24272000 </v>
   <v>       0.83672777       0.17037063       0.30156466 </v>
   <v>       0.00044000       0.33497000       0.24240000 </v>
   <v>       0.16753604       0.50071261       0.30462257 </v>
   <v>       0.33469000       0.33305000       0.24267000 </v>
   <v>       0.50427462       0.50218336       0.30069597 </v>
   <v>       0.82993285       0.50069935       0.30131577 </v>
   <v>       0.16768928       0.83389898       0.30664764 </v>
   <v>       0.33342000       0.66555000       0.24261000 </v>
   <v>       0.83481450       0.83386474       0.30408702 </v>
   <v>       0.00064000       0.00119000       0.00199000 </v>
   <v>       0.98884752       0.00965484       0.36258730 </v>
   <v>       0.16843000       0.16962000       0.06269000 </v>
   <v>       0.33460000       0.00297000       0.00254000 </v>
   <v>       0.34672770       0.01228145       0.36373375 </v>
   <v>       0.50463000       0.16850000       0.06120000 </v>
   <v>       0.83272000       0.16670000       0.06193000 </v>
   <v>       0.00004000       0.33467000       0.00213000 </v>
   <v>       0.00136425       0.33153553       0.36061831 </v>
   <v>       0.16757000       0.49895000       0.06268000 </v>
   <v>       0.50099000       0.49896000       0.06206000 </v>
   <v>       0.83393000       0.50234000       0.06235000 </v>
   <v>       0.00121000       0.66785000       0.00188000 </v>
   <v>       0.98965477       0.65839557       0.36110335 </v>
   <v>       0.16792000       0.83462000       0.06228000 </v>
   <v>       0.33437000       0.66664000       0.00225000 </v>
   <v>       0.34755001       0.65398105       0.36270453 </v>
   <v>       0.50152000       0.83563000       0.06217000 </v>
   <v>       0.66753000       0.66705000       0.00175000 </v>
   <v>       0.66094744       0.67320425       0.36128660 </v>
   <v>       0.83293000       0.83584000       0.06235000 </v>
   <v>       0.00121000       0.00098000       0.12225000 </v>
   <v>       0.16700000       0.16811000       0.18239000 </v>
   <v>       0.33470000       0.00227000       0.12192000 </v>
   <v>       0.50174000       0.16716000       0.18263000 </v>
   <v>       0.83421000       0.16639000       0.18283000 </v>
   <v>       0.16964000       0.49868000       0.18209000 </v>
   <v>       0.50219000       0.50081000       0.18317000 </v>
   <v>       0.66741000       0.33395000       0.12233000 </v>
   <v>       0.83134000       0.50253000       0.18283000 </v>
   <v>       0.00132000       0.66795000       0.12253000 </v>
   <v>       0.16898000       0.83509000       0.18243000 </v>
   <v>       0.33446000       0.66703000       0.12223000 </v>
   <v>       0.49971000       0.83538000       0.18278000 </v>
   <v>       0.66698000       0.66840000       0.12259000 </v>
   <v>       0.83488000       0.83403000       0.18294000 </v>
   <v>       0.33558000       0.99863000       0.24353000 </v>
   <v>       0.66801000       0.33262000       0.24229000 </v>
   <v>       0.00448000       0.66739000       0.24217000 </v>
   <v>       0.49499758       0.83444516       0.30142438 </v>
   <v>       0.66521000       0.67351000       0.24327000 </v>
   <v>       0.66620000       0.99680000       0.00000000 </v>
   <v>       0.66836834       0.00980947       0.36235523 </v>
   <v>       0.33213000       0.33386000       0.00135000 </v>
   <v>       0.34218053       0.33245841       0.36351972 </v>
   <v>       0.67040000       0.33673000       0.00321000 </v>
   <v>       0.65956162       0.32944426       0.37073792 </v>
   <v>       0.66728000       0.99998000       0.12246000 </v>
   <v>       0.99806000       0.33495000       0.12235000 </v>
   <v>       0.33675000       0.33238000       0.12261000 </v>
   <v>       0.16861731       0.83212528       0.43627039 </v>
  </varray>
  <varray name="selective"  type="logical" >
   <v type="logical" >  F  F  F </v>
   <v type="logical" >  T  T  T </v>
   <v type="logical" >  T  T  T </v>
   <v type="logical" >  F  F  F </v>
   <v type="logical" >  T  T  T </v>
   <v type="logical" >  F  F  F </v>
   <v type="logical" >  T  T  T </v>
   <v type="logical" >  F  F  F </v>
   <v type="logical" >  T  T  T </v>
   <v type="logical" >  T  T  T </v>
   <v type="logical" >  T  T  T </v>
   <v type="logical" >  F  F  F </v>
   <v type="logical" >  T  T  T </v>
   <v type="logical" >  F  F  F </v>
   <v type="logical" >  T  T  T </v>
   <v type="logical" >  F  F  F </v>
   <v type="logical" >  F  F  F </v>
   <v type="logical" >  T  T  T </v>
   <v type="logical" >  F  F  F </v>
   <v type="logical" >  F  F  F </v>
   <v type="logical" >  F  F  F </v>
   <v type="logical" >  T  T  T </v>
   <v type="logical" >  F  F  F </v>
   <v type="logical" >  F  F  F </v>
   <v type="logical" >  F  F  F </v>
   <v type="logical" >  F  F  F </v>
   <v type="logical" >  T  T  T </v>
   <v type="logical" >  F  F  F </v>
   <v type="logical" >  F  F  F </v>
   <v type="logical" >  T  T  T </v>
   <v type="logical" >  F  F  F </v>
   <v type="logical" >  F  F  F </v>
   <v type="logical" >  T  T  T </v>
   <v type="logical" >  F  F  F </v>
   <v type="logical" >  F  F  F </v>
   <v type="logical" >  F  F  F </v>
   <v type="logical" >  F  F  F </v>
   <v type="logical" >  F  F  F </v>
   <v type="logical" >  F  F  F </v>
   <v type="logical" >  F  F  F </v>
   <v type="logical" >  F  F  F </v>
   <v type="logical" >  F  F  F </v>
   <v type="logical" >  F  F  F </v>
   <v type="logical" >  F  F  F </v>
   <v type="logical" >  F  F  F </v>
   <v type="logical" >  F  F  F </v>
   <v type="logical" >  F  F  F </v>
   <v type="logical" >  F  F  F </v>
   <v type="logical" >  F  F  F </v>
   <v type="logical" >  F  F  F </v>
   <v type="logical" >  F  F  F </v>
   <v type="logical" >  F  F  F </v>
   <v type="logical" >  T  T  T </v>
   <v type="logical" >  F  F  F </v>
   <v type="logical" >  F  F  F </v>
   <v type="logical" >  T  T  T </v>
   <v type="logical" >  F  F  F </v>
   <v type="logical" >  T  T  T </v>
   <v type="logical" >  F  F  F </v>
   <v type="logical" >  T  T  T </v>
   <v type="logical" >  F  F  F </v>
   <v type="logical" >  F  F  F </v>
   <v type="logical" >  F  F  F </v>
   <v type="logical" >  T  T  T </v>
  </varray>
  <nose>
   <v>      -3.00000000       0.00000000       0.00010000       0.00010000 </v>
  </nose>
 </structure>
 <calculation>
  <scstep>
   <time name="dav">  195.90   28.17</time>
   <time name="total">  204.46   29.85</time>
   <dipole>
    <v name="dipole">      0.00000000       0.00000000      -0.00012824 </v>
    <i name="Tr[quadrupol]">  -7067.12499299 </i>
    <i name="Echarged">      0.00000000 </i>
    <i name="Edipol_quadrupol">      0.00000000 </i>
    <i name="Eion">      0.00000000 </i>
   </dipole>
   <energy>
    <i name="alphaZ">   1868.92837392 </i>
    <i name="ewald"> 210398.21261031 </i>
    <i name="hartreedc">-262278.73829603 </i>
    <i name="XCdc">    998.79840716 </i>
    <i name="pawpsdc">  46919.87437312 </i>
    <i name="pawaedc"> -47958.31232237 </i>
    <i name="eentropy">      0.00000000 </i>
    <i name="bandstr">   1909.25640581 </i>
    <i name="atom">  53853.58386974 </i>
    <i name="e_fr_energy">   5711.60342166 </i>
    <i name="e_wo_entrp">   5711.60342166 </i>
    <i name="e_0_energy">   5711.60342166 </i>
   </energy>
  </scstep>
  <scstep>
   <time name="dav">  185.79   26.70</time>
   <time name="total">  186.35   26.78</time>
   <dipole>
    <v name="dipole">      0.00000000       0.00000000      -0.00012824 </v>
    <i name="Tr[quadrupol]">  -7067.12499299 </i>
    <i name="Echarged">      0.00000000 </i>
    <i name="Edipol_quadrupol">      0.00000000 </i>
    <i name="Eion">      0.00000000 </i>
   </dipole>
   <energy>
    <i name="e_fr_energy">    -60.23933043 </i>
    <i name="e_wo_entrp">    -60.23933043 </i>
    <i name="e_0_energy">    -60.23933043 </i>
   </energy>
  </scstep>
  <scstep>
   <time name="dav">  191.60   27.54</time>
   <time name="total">  192.24   27.63</time>
   <dipole>
    <v name="dipole">      0.00000000       0.00000000      -0.00012824 </v>
    <i name="Tr[quadrupol]">  -7067.12499299 </i>
    <i name="Echarged">      0.00000000 </i>
    <i name="Edipol_quadrupol">      0.00000000 </i>
    <i name="Eion">      0.00000000 </i>
   </dipole>
   <energy>
    <i name="e_fr_energy">   -530.37554724 </i>
    <i name="e_wo_entrp">   -530.37554724 </i>
    <i name="e_0_energy">   -530.37554724 </i>
   </energy>
  </scstep>
  <scstep>
   <time name="dav">  293.57   42.24</time>
   <time name="total">  294.13   42.32</time>
   <dipole>
    <v name="dipole">      0.00000000       0.00000000      -0.00012824 </v>
    <i name="Tr[quadrupol]">  -7067.12499299 </i>
    <i name="Echarged">      0.00000000 </i>
    <i name="Edipol_quadrupol">      0.00000000 </i>
    <i name="Eion">      0.00000000 </i>
   </dipole>
   <energy>
    <i name="e_fr_energy">   -590.13292706 </i>
    <i name="e_wo_entrp">   -590.13292706 </i>
    <i name="e_0_energy">   -590.13292706 </i>
   </energy>
  </scstep>
  <scstep>
   <time name="dav">  278.33   40.01</time>
   <time name="total">  280.70   40.56</time>
   <dipole>
    <v name="dipole">      0.00000000       0.00000000      -0.00012824 </v>
    <i name="Tr[quadrupol]">  -7067.12499299 </i>
    <i name="Echarged">      0.00000000 </i>
    <i name="Edipol_quadrupol">      0.00000000 </i>
    <i name="Eion">      0.00000000 </i>
   </dipole>
   <energy>
    <i name="e_fr_energy">   -593.50581591 </i>
    <i name="e_wo_entrp">   -593.50581591 </i>
    <i name="e_0_energy">   -593.50581591 </i>
   </energy>
  </scstep>
  <scstep>
   <time name="dav">  302.33   43.42</time>
   <time name="total">  312.55   45.54</time>
   <dipole>
    <v name="dipole">      0.00000000       0.00000000       1.59525722 </v>
    <i name="Tr[quadrupol]">  -7091.54736584 </i>
    <i name="Echarged">      0.00000000 </i>
    <i name="Edipol_quadrupol">      0.00000000 </i>
    <i name="Eion">      0.00000000 </i>
   </dipole>
   <energy>
    <i name="e_fr_energy">   -737.01793767 </i>
    <i name="e_wo_entrp">   -737.01793767 </i>
    <i name="e_0_energy">   -737.01793767 </i>
   </energy>
  </scstep>
  <scstep>
   <time name="dav">  307.76   44.21</time>
   <time name="total">  317.93   46.33</time>
   <dipole>
    <v name="dipole">      0.00000000       0.00000000      -1.62948072 </v>
    <i name="Tr[quadrupol]">  -7078.76655389 </i>
    <i name="Echarged">      0.00000000 </i>
    <i name="Edipol_quadrupol">      0.00000000 </i>
    <i name="Eion">      0.00000000 </i>
   </dipole>
   <energy>
    <i name="e_fr_energy">   -706.03185847 </i>
    <i name="e_wo_entrp">   -706.03185847 </i>
    <i name="e_0_energy">   -706.03185847 </i>
   </energy>
  </scstep>
  <scstep>
   <time name="dav">  305.21   43.86</time>
   <time name="total">  315.33   45.96</time>
   <dipole>
    <v name="dipole">      0.00000000       0.00000000       0.59210760 </v>
    <i name="Tr[quadrupol]">  -7076.64875302 </i>
    <i name="Echarged">      0.00000000 </i>
    <i name="Edipol_quadrupol">      0.00000000 </i>
    <i name="Eion">      0.00000000 </i>
   </dipole>
   <energy>
    <i name="e_fr_energy">   -561.85508108 </i>
    <i name="e_wo_entrp">   -561.85508108 </i>
    <i name="e_0_energy">   -561.85508108 </i>
   </energy>
  </scstep>
  <scstep>
   <time name="dav">  290.34   41.64</time>
   <time name="total">  300.42   43.74</time>
   <dipole>
    <v name="dipole">      0.00000000       0.00000000      -0.03776576 </v>
    <i name="Tr[quadrupol]">  -7075.57777409 </i>
    <i name="Echarged">      0.00000000 </i>
    <i name="Edipol_quadrupol">      0.00000000 </i>
    <i name="Eion">      0.00000000 </i>
   </dipole>
   <energy>
    <i name="e_fr_energy">   -540.54396302 </i>
    <i name="e_wo_entrp">   -540.54396302 </i>
    <i name="e_0_energy">   -540.54396302 </i>
   </energy>
  </scstep>
  <scstep>
   <time name="dav">  277.77   39.80</time>
   <time name="total">  288.05   41.93</time>
   <dipole>
    <v name="dipole">      0.00000000       0.00000000       0.21470309 </v>
    <i name="Tr[quadrupol]">  -7075.89711534 </i>
    <i name="Echarged">      0.00000000 </i>
    <i name="Edipol_quadrupol">      0.00000000 </i>
    <i name="Eion">      0.00000000 </i>
   </dipole>
   <energy>
    <i name="e_fr_energy">   -525.34067965 </i>
    <i name="e_wo_entrp">   -525.34067965 </i>
    <i name="e_0_energy">   -525.34067965 </i>
   </energy>
  </scstep>
  <scstep>
   <time name="dav">  254.25   36.48</time>
   <time name="total">  264.52   38.61</time>
   <dipole>
    <v name="dipole">      0.00000000       0.00000000      -0.00368661 </v>
    <i name="Tr[quadrupol]">  -7082.77298175 </i>
    <i name="Echarged">      0.00000000 </i>
    <i name="Edipol_quadrupol">      0.00000000 </i>
    <i name="Eion">      0.00000000 </i>
   </dipole>
   <energy>
    <i name="e_fr_energy">   -506.00271487 </i>
    <i name="e_wo_entrp">   -506.00271487 </i>
    <i name="e_0_energy">   -506.00271487 </i>
   </energy>
  </scstep>
  <scstep>
   <time name="dav">  243.49   34.88</time>
   <time name="total">  253.53   36.99</time>
   <dipole>
    <v name="dipole">      0.00000000       0.00000000       0.01815303 </v>
    <i name="Tr[quadrupol]">  -7088.58117578 </i>
    <i name="Echarged">      0.00000000 </i>
    <i name="Edipol_quadrupol">      0.00000000 </i>
    <i name="Eion">      0.00000000 </i>
   </dipole>
   <energy>
    <i name="e_fr_energy">   -501.13208239 </i>
    <i name="e_wo_entrp">   -501.13208239 </i>
    <i name="e_0_energy">   -501.13208239 </i>
   </energy>
  </scstep>
  <scstep>
   <time name="dav">  250.38   35.91</time>
   <time name="total">  260.58   38.03</time>
   <dipole>
    <v name="dipole">      0.00000000       0.00000000       0.04915452 </v>
    <i name="Tr[quadrupol]">  -7089.54949559 </i>
    <i name="Echarged">      0.00000000 </i>
    <i name="Edipol_quadrupol">      0.00000000 </i>
    <i name="Eion">      0.00000000 </i>
   </dipole>
   <energy>
    <i name="e_fr_energy">   -501.23947608 </i>
    <i name="e_wo_entrp">   -501.23947608 </i>
    <i name="e_0_energy">   -501.23947608 </i>
   </energy>
  </scstep>
  <scstep>
   <time name="dav">  274.44   39.83</time>
   <time name="total">  284.75   41.97</time>
   <dipole>
    <v name="dipole">      0.00000000       0.00000000       0.06210383 </v>
    <i name="Tr[quadrupol]">  -7089.31202664 </i>
    <i name="Echarged">      0.00000000 </i>
    <i name="Edipol_quadrupol">      0.00000000 </i>
    <i name="Eion">      0.00000000 </i>
   </dipole>
   <energy>
    <i name="e_fr_energy">   -501.13462983 </i>
    <i name="e_wo_entrp">   -501.13462983 </i>
    <i name="e_0_energy">   -501.13462983 </i>
   </energy>
  </scstep>
  <scstep>
   <time name="dav">  301.35   43.18</time>
   <time name="total">  311.52   45.29</time>
   <dipole>
    <v name="dipole">      0.00000000       0.00000000       0.10066210 </v>
    <i name="Tr[quadrupol]">  -7089.68605967 </i>
    <i name="Echarged">      0.00000000 </i>
    <i name="Edipol_quadrupol">      0.00000000 </i>
    <i name="Eion">      0.00000000 </i>
   </dipole>
   <energy>
    <i name="e_fr_energy">   -501.69510658 </i>
    <i name="e_wo_entrp">   -501.69510658 </i>
    <i name="e_0_energy">   -501.69510658 </i>
   </energy>
  </scstep>
  <scstep>
   <time name="dav">  294.36   42.59</time>
   <time name="total">  305.22   44.82</time>
   <dipole>
    <v name="dipole">      0.00000000       0.00000000       0.00936428 </v>
    <i name="Tr[quadrupol]">  -7092.04737671 </i>
    <i name="Echarged">      0.00000000 </i>
    <i name="Edipol_quadrupol">      0.00000000 </i>
    <i name="Eion">      0.00000000 </i>
   </dipole>
   <energy>
    <i name="e_fr_energy">   -504.13063358 </i>
    <i name="e_wo_entrp">   -504.13063358 </i>
    <i name="e_0_energy">   -504.13063358 </i>
   </energy>
  </scstep>
  <scstep>
   <time name="dav">  283.65   40.76</time>
   <time name="total">  293.91   42.88</time>
   <dipole>
    <v name="dipole">      0.00000000       0.00000000       0.09723705 </v>
    <i name="Tr[quadrupol]">  -7095.08644434 </i>
    <i name="Echarged">      0.00000000 </i>
    <i name="Edipol_quadrupol">      0.00000000 </i>
    <i name="Eion">      0.00000000 </i>
   </dipole>
   <energy>
    <i name="e_fr_energy">   -506.79375922 </i>
    <i name="e_wo_entrp">   -506.79375922 </i>
    <i name="e_0_energy">   -506.79375922 </i>
   </energy>
  </scstep>
  <scstep>
   <time name="dav">  282.78   40.64</time>
   <time name="total">  293.08   42.77</time>
   <dipole>
    <v name="dipole">      0.00000000       0.00000000       0.03713895 </v>
    <i name="Tr[quadrupol]">  -7096.84799838 </i>
    <i name="Echarged">      0.00000000 </i>
    <i name="Edipol_quadrupol">      0.00000000 </i>
    <i name="Eion">      0.00000000 </i>
   </dipole>
   <energy>
    <i name="e_fr_energy">   -509.28475500 </i>
    <i name="e_wo_entrp">   -509.28475500 </i>
    <i name="e_0_energy">   -509.28475500 </i>
   </energy>
  </scstep>
  <scstep>
   <time name="dav">  272.18   39.12</time>
   <time name="total">  282.51   41.27</time>
   <dipole>
    <v name="dipole">      0.00000000       0.00000000       0.06796422 </v>
    <i name="Tr[quadrupol]">  -7097.61896224 </i>
    <i name="Echarged">      0.00000000 </i>
    <i name="Edipol_quadrupol">      0.00000000 </i>
    <i name="Eion">      0.00000000 </i>
   </dipole>
   <energy>
    <i name="e_fr_energy">   -510.24107394 </i>
    <i name="e_wo_entrp">   -510.24107394 </i>
    <i name="e_0_energy">   -510.24107394 </i>
   </energy>
  </scstep>
  <scstep>
   <time name="dav">  275.81   39.64</time>
   <time name="total">  286.08   41.77</time>
   <dipole>
    <v name="dipole">      0.00000000       0.00000000       0.04041257 </v>
    <i name="Tr[quadrupol]">  -7097.64317116 </i>
    <i name="Echarged">      0.00000000 </i>
    <i name="Edipol_quadrupol">      0.00000000 </i>
    <i name="Eion">      0.00000000 </i>
   </dipole>
   <energy>
    <i name="e_fr_energy">   -510.76522858 </i>
    <i name="e_wo_entrp">   -510.76522858 </i>
    <i name="e_0_energy">   -510.76522858 </i>
   </energy>
  </scstep>
  <scstep>
   <time name="dav">  290.56   41.79</time>
   <time name="total">  300.78   43.91</time>
   <dipole>
    <v name="dipole">      0.00000000       0.00000000       0.07523860 </v>
    <i name="Tr[quadrupol]">  -7096.82318074 </i>
    <i name="Echarged">      0.00000000 </i>
    <i name="Edipol_quadrupol">      0.00000000 </i>
    <i name="Eion">      0.00000000 </i>
   </dipole>
   <energy>
    <i name="e_fr_energy">   -511.43426203 </i>
    <i name="e_wo_entrp">   -511.43426203 </i>
    <i name="e_0_energy">   -511.43426203 </i>
   </energy>
  </scstep>
  <scstep>
   <time name="dav">  289.14   41.55</time>
   <time name="total">  299.38   43.68</time>
   <dipole>
    <v name="dipole">      0.00000000       0.00000000       0.05688919 </v>
    <i name="Tr[quadrupol]">  -7096.29928448 </i>
    <i name="Echarged">      0.00000000 </i>
    <i name="Edipol_quadrupol">      0.00000000 </i>
    <i name="Eion">      0.00000000 </i>
   </dipole>
   <energy>
    <i name="e_fr_energy">   -512.18508731 </i>
    <i name="e_wo_entrp">   -512.18508731 </i>
    <i name="e_0_energy">   -512.18508731 </i>
   </energy>
  </scstep>
  <scstep>
   <time name="dav">  287.54   41.31</time>
   <time name="total">  297.67   43.46</time>
   <dipole>
    <v name="dipole">      0.00000000       0.00000000       0.09345014 </v>
    <i name="Tr[quadrupol]">  -7096.53779116 </i>
    <i name="Echarged">      0.00000000 </i>
    <i name="Edipol_quadrupol">      0.00000000 </i>
    <i name="Eion">      0.00000000 </i>
   </dipole>
   <energy>
    <i name="e_fr_energy">   -512.31960479 </i>
    <i name="e_wo_entrp">   -512.31960479 </i>
    <i name="e_0_energy">   -512.31960479 </i>
   </energy>
  </scstep>
  <scstep>
   <time name="dav">  281.08   40.32</time>
   <time name="total">  291.34   42.44</time>
   <dipole>
    <v name="dipole">      0.00000000       0.00000000       0.09169620 </v>
    <i name="Tr[quadrupol]">  -7096.99750711 </i>
    <i name="Echarged">      0.00000000 </i>
    <i name="Edipol_quadrupol">      0.00000000 </i>
    <i name="Eion">      0.00000000 </i>
   </dipole>
   <energy>
    <i name="e_fr_energy">   -512.35601277 </i>
    <i name="e_wo_entrp">   -512.35601277 </i>
    <i name="e_0_energy">   -512.35601277 </i>
   </energy>
  </scstep>
  <scstep>
   <time name="dav">  298.52   42.89</time>
   <time name="total">  308.69   45.02</time>
   <dipole>
    <v name="dipole">      0.00000000       0.00000000       0.10255246 </v>
    <i name="Tr[quadrupol]">  -7097.21710919 </i>
    <i name="Echarged">      0.00000000 </i>
    <i name="Edipol_quadrupol">      0.00000000 </i>
    <i name="Eion">      0.00000000 </i>
   </dipole>
   <energy>
    <i name="e_fr_energy">   -512.59192456 </i>
    <i name="e_wo_entrp">   -512.59192456 </i>
    <i name="e_0_energy">   -512.59192456 </i>
   </energy>
  </scstep>
  <scstep>
   <time name="dav">  296.32   42.55</time>
   <time name="total">  306.55   44.70</time>
   <dipole>
    <v name="dipole">      0.00000000       0.00000000       0.07709713 </v>
    <i name="Tr[quadrupol]">  -7097.22957973 </i>
    <i name="Echarged">      0.00000000 </i>
    <i name="Edipol_quadrupol">      0.00000000 </i>
    <i name="Eion">      0.00000000 </i>
   </dipole>
   <energy>
    <i name="e_fr_energy">   -513.03951831 </i>
    <i name="e_wo_entrp">   -513.03951831 </i>
    <i name="e_0_energy">   -513.03951831 </i>
   </energy>
  </scstep>
  <scstep>
   <time name="dav">  283.32   40.67</time>
   <time name="total">  293.56   42.83</time>
   <dipole>
    <v name="dipole">      0.00000000       0.00000000       0.05766193 </v>
    <i name="Tr[quadrupol]">  -7097.49325879 </i>
    <i name="Echarged">      0.00000000 </i>
    <i name="Edipol_quadrupol">      0.00000000 </i>
    <i name="Eion">      0.00000000 </i>
   </dipole>
   <energy>
    <i name="e_fr_energy">   -513.42548440 </i>
    <i name="e_wo_entrp">   -513.42548440 </i>
    <i name="e_0_energy">   -513.42548440 </i>
   </energy>
  </scstep>
  <scstep>
   <time name="dav">  278.81   39.98</time>
   <time name="total">  289.47   42.17</time>
   <dipole>
    <v name="dipole">      0.00000000       0.00000000       0.05283666 </v>
    <i name="Tr[quadrupol]">  -7097.63554428 </i>
    <i name="Echarged">      0.00000000 </i>
    <i name="Edipol_quadrupol">      0.00000000 </i>
    <i name="Eion">      0.00000000 </i>
   </dipole>
   <energy>
    <i name="e_fr_energy">   -513.49599603 </i>
    <i name="e_wo_entrp">   -513.49599603 </i>
    <i name="e_0_energy">   -513.49599603 </i>
   </energy>
  </scstep>
  <scstep>
   <time name="dav">  293.87   42.11</time>
   <time name="total">  304.25   44.26</time>
   <dipole>
    <v name="dipole">      0.00000000       0.00000000       0.07235427 </v>
    <i name="Tr[quadrupol]">  -7097.69264080 </i>
    <i name="Echarged">      0.00000000 </i>
    <i name="Edipol_quadrupol">      0.00000000 </i>
    <i name="Eion">      0.00000000 </i>
   </dipole>
   <energy>
    <i name="e_fr_energy">   -513.54585726 </i>
    <i name="e_wo_entrp">   -513.54585726 </i>
    <i name="e_0_energy">   -513.54585726 </i>
   </energy>
  </scstep>
  <scstep>
   <time name="dav">  276.20   39.73</time>
   <time name="total">  286.54   41.87</time>
   <dipole>
    <v name="dipole">      0.00000000       0.00000000       0.07603588 </v>
    <i name="Tr[quadrupol]">  -7097.82754453 </i>
    <i name="Echarged">      0.00000000 </i>
    <i name="Edipol_quadrupol">      0.00000000 </i>
    <i name="Eion">      0.00000000 </i>
   </dipole>
   <energy>
    <i name="e_fr_energy">   -513.56048955 </i>
    <i name="e_wo_entrp">   -513.56048955 </i>
    <i name="e_0_energy">   -513.56048955 </i>
   </energy>
  </scstep>
  <scstep>
   <time name="dav">  281.52   40.44</time>
   <time name="total">  292.17   42.61</time>
   <dipole>
    <v name="dipole">      0.00000000       0.00000000       0.07908033 </v>
    <i name="Tr[quadrupol]">  -7097.65755603 </i>
    <i name="Echarged">      0.00000000 </i>
    <i name="Edipol_quadrupol">      0.00000000 </i>
    <i name="Eion">      0.00000000 </i>
   </dipole>
   <energy>
    <i name="e_fr_energy">   -513.57189508 </i>
    <i name="e_wo_entrp">   -513.57189508 </i>
    <i name="e_0_energy">   -513.57189508 </i>
   </energy>
  </scstep>
  <scstep>
   <time name="dav">  289.58   41.57</time>
   <time name="total">  300.04   43.73</time>
   <dipole>
    <v name="dipole">      0.00000000       0.00000000       0.08428980 </v>
    <i name="Tr[quadrupol]">  -7097.49403489 </i>
    <i name="Echarged">      0.00000000 </i>
    <i name="Edipol_quadrupol">      0.00000000 </i>
    <i name="Eion">      0.00000000 </i>
   </dipole>
   <energy>
    <i name="e_fr_energy">   -513.56077726 </i>
    <i name="e_wo_entrp">   -513.56077726 </i>
    <i name="e_0_energy">   -513.56077726 </i>
   </energy>
  </scstep>
  <scstep>
   <time name="dav">  276.83   39.67</time>
   <time name="total">  287.35   41.84</time>
   <dipole>
    <v name="dipole">      0.00000000       0.00000000       0.08778729 </v>
    <i name="Tr[quadrupol]">  -7097.55258674 </i>
    <i name="Echarged">      0.00000000 </i>
    <i name="Edipol_quadrupol">      0.00000000 </i>
    <i name="Eion">      0.00000000 </i>
   </dipole>
   <energy>
    <i name="e_fr_energy">   -513.55310183 </i>
    <i name="e_wo_entrp">   -513.55310183 </i>
    <i name="e_0_energy">   -513.55310183 </i>
   </energy>
  </scstep>
  <scstep>
   <time name="dav">  272.46   39.09</time>
   <time name="total">  282.78   41.25</time>
   <dipole>
    <v name="dipole">      0.00000000       0.00000000       0.08765461 </v>
    <i name="Tr[quadrupol]">  -7097.63011195 </i>
    <i name="Echarged">      0.00000000 </i>
    <i name="Edipol_quadrupol">      0.00000000 </i>
    <i name="Eion">      0.00000000 </i>
   </dipole>
   <energy>
    <i name="e_fr_energy">   -513.56136522 </i>
    <i name="e_wo_entrp">   -513.56136522 </i>
    <i name="e_0_energy">   -513.56136522 </i>
   </energy>
  </scstep>
  <scstep>
   <time name="dav">  300.91   43.17</time>
   <time name="total">  311.44   45.34</time>
   <dipole>
    <v name="dipole">      0.00000000       0.00000000       0.08868030 </v>
    <i name="Tr[quadrupol]">  -7097.60051819 </i>
    <i name="Echarged">      0.00000000 </i>
    <i name="Edipol_quadrupol">      0.00000000 </i>
    <i name="Eion">      0.00000000 </i>
   </dipole>
   <energy>
    <i name="e_fr_energy">   -513.56677189 </i>
    <i name="e_wo_entrp">   -513.56677189 </i>
    <i name="e_0_energy">   -513.56677189 </i>
   </energy>
  </scstep>
  <scstep>
   <time name="dav">  283.45   40.62</time>
   <time name="total">  293.83   42.78</time>
   <dipole>
    <v name="dipole">      0.00000000       0.00000000       0.08758740 </v>
    <i name="Tr[quadrupol]">  -7097.56039533 </i>
    <i name="Echarged">      0.00000000 </i>
    <i name="Edipol_quadrupol">      0.00000000 </i>
    <i name="Eion">      0.00000000 </i>
   </dipole>
   <energy>
    <i name="e_fr_energy">   -513.56838516 </i>
    <i name="e_wo_entrp">   -513.56838516 </i>
    <i name="e_0_energy">   -513.56838516 </i>
   </energy>
  </scstep>
  <scstep>
   <time name="dav">  264.39   38.06</time>
   <time name="total">  274.97   40.24</time>
   <dipole>
    <v name="dipole">      0.00000000       0.00000000       0.08848058 </v>
    <i name="Tr[quadrupol]">  -7097.53594614 </i>
    <i name="Echarged">      0.00000000 </i>
    <i name="Edipol_quadrupol">      0.00000000 </i>
    <i name="Eion">      0.00000000 </i>
   </dipole>
   <energy>
    <i name="e_fr_energy">   -513.57058568 </i>
    <i name="e_wo_entrp">   -513.57058568 </i>
    <i name="e_0_energy">   -513.57058568 </i>
   </energy>
  </scstep>
  <scstep>
   <time name="dav">  294.21   42.24</time>
   <time name="total">  305.11   44.46</time>
   <dipole>
    <v name="dipole">      0.00000000       0.00000000       0.08698168 </v>
    <i name="Tr[quadrupol]">  -7097.50489562 </i>
    <i name="Echarged">      0.00000000 </i>
    <i name="Edipol_quadrupol">      0.00000000 </i>
    <i name="Eion">      0.00000000 </i>
   </dipole>
   <energy>
    <i name="e_fr_energy">   -513.57005940 </i>
    <i name="e_wo_entrp">   -513.57005940 </i>
    <i name="e_0_energy">   -513.57005940 </i>
   </energy>
  </scstep>
  <scstep>
   <time name="dav">  277.63   39.87</time>
   <time name="total">  288.44   42.08</time>
   <dipole>
    <v name="dipole">      0.00000000       0.00000000       0.08688803 </v>
    <i name="Tr[quadrupol]">  -7097.51458596 </i>
    <i name="Echarged">      0.00000000 </i>
    <i name="Edipol_quadrupol">      0.00000000 </i>
    <i name="Eion">      0.00000000 </i>
   </dipole>
   <energy>
    <i name="e_fr_energy">   -513.56994854 </i>
    <i name="e_wo_entrp">   -513.56994854 </i>
    <i name="e_0_energy">   -513.56994854 </i>
   </energy>
  </scstep>
  <scstep>
   <time name="dav">  289.44   41.58</time>
   <time name="total">  300.36   43.81</time>
   <dipole>
    <v name="dipole">      0.00000000       0.00000000       0.08381849 </v>
    <i name="Tr[quadrupol]">  -7097.50115225 </i>
    <i name="Echarged">      0.00000000 </i>
    <i name="Edipol_quadrupol">      0.00000000 </i>
    <i name="Eion">      0.00000000 </i>
   </dipole>
   <energy>
    <i name="e_fr_energy">   -513.57030083 </i>
    <i name="e_wo_entrp">   -513.57030083 </i>
    <i name="e_0_energy">   -513.57030083 </i>
   </energy>
  </scstep>
  <scstep>
   <time name="dav">  268.68   38.52</time>
   <time name="total">  279.36   40.71</time>
   <dipole>
    <v name="dipole">      0.00000000       0.00000000       0.08418854 </v>
    <i name="Tr[quadrupol]">  -7097.50579736 </i>
    <i name="Echarged">      0.00000000 </i>
    <i name="Edipol_quadrupol">      0.00000000 </i>
    <i name="Eion">      0.00000000 </i>
   </dipole>
   <energy>
    <i name="e_fr_energy">   -513.57128913 </i>
    <i name="e_wo_entrp">   -513.57128913 </i>
    <i name="e_0_energy">   -513.57128913 </i>
   </energy>
  </scstep>
  <scstep>
   <time name="dav">  294.31   42.22</time>
   <time name="total">  305.03   44.42</time>
   <dipole>
    <v name="dipole">      0.00000000       0.00000000       0.08456141 </v>
    <i name="Tr[quadrupol]">  -7097.51658048 </i>
    <i name="Echarged">      0.00000000 </i>
    <i name="Edipol_quadrupol">      0.00000000 </i>
    <i name="Eion">      0.00000000 </i>
   </dipole>
   <energy>
    <i name="e_fr_energy">   -513.57173639 </i>
    <i name="e_wo_entrp">   -513.57173639 </i>
    <i name="e_0_energy">   -513.57173639 </i>
   </energy>
  </scstep>
  <scstep>
   <time name="dav">  291.92   41.87</time>
   <time name="total">  302.55   44.06</time>
   <dipole>
    <v name="dipole">      0.00000000       0.00000000       0.08450890 </v>
    <i name="Tr[quadrupol]">  -7097.53136308 </i>
    <i name="Echarged">      0.00000000 </i>
    <i name="Edipol_quadrupol">      0.00000000 </i>
    <i name="Eion">      0.00000000 </i>
   </dipole>
   <energy>
    <i name="e_fr_energy">   -513.57216515 </i>
    <i name="e_wo_entrp">   -513.57216515 </i>
    <i name="e_0_energy">   -513.57216515 </i>
   </energy>
  </scstep>
  <scstep>
   <time name="dav">  289.25   41.56</time>
   <time name="total">  299.86   43.76</time>
   <dipole>
    <v name="dipole">      0.00000000       0.00000000       0.08454503 </v>
    <i name="Tr[quadrupol]">  -7097.53401736 </i>
    <i name="Echarged">      0.00000000 </i>
    <i name="Edipol_quadrupol">      0.00000000 </i>
    <i name="Eion">      0.00000000 </i>
   </dipole>
   <energy>
    <i name="e_fr_energy">   -513.57229351 </i>
    <i name="e_wo_entrp">   -513.57229351 </i>
    <i name="e_0_energy">   -513.57229351 </i>
   </energy>
  </scstep>
  <scstep>
   <time name="dav">  286.13   41.10</time>
   <time name="total">  296.97   43.32</time>
   <dipole>
    <v name="dipole">      0.00000000       0.00000000       0.08453201 </v>
    <i name="Tr[quadrupol]">  -7097.53033828 </i>
    <i name="Echarged">      0.00000000 </i>
    <i name="Edipol_quadrupol">      0.00000000 </i>
    <i name="Eion">      0.00000000 </i>
   </dipole>
   <energy>
    <i name="e_fr_energy">   -513.57231101 </i>
    <i name="e_wo_entrp">   -513.57231101 </i>
    <i name="e_0_energy">   -513.57231101 </i>
   </energy>
  </scstep>
  <scstep>
   <time name="dav">  281.41   40.45</time>
   <time name="total">  292.25   42.66</time>
   <dipole>
    <v name="dipole">      0.00000000       0.00000000       0.08524100 </v>
    <i name="Tr[quadrupol]">  -7097.53865469 </i>
    <i name="Echarged">      0.00000000 </i>
    <i name="Edipol_quadrupol">      0.00000000 </i>
    <i name="Eion">      0.00000000 </i>
   </dipole>
   <energy>
    <i name="e_fr_energy">   -513.57237299 </i>
    <i name="e_wo_entrp">   -513.57237299 </i>
    <i name="e_0_energy">   -513.57237299 </i>
   </energy>
  </scstep>
  <scstep>
   <time name="dav">  214.77   30.85</time>
   <time name="total">  225.62   33.06</time>
   <dipole>
    <v name="dipole">      0.00000000       0.00000000       0.08546337 </v>
    <i name="Tr[quadrupol]">  -7097.53430162 </i>
    <i name="Echarged">      0.00000000 </i>
    <i name="Edipol_quadrupol">      0.00000000 </i>
    <i name="Eion">      0.00000000 </i>
   </dipole>
   <energy>
    <i name="e_fr_energy">   -513.57241729 </i>
    <i name="e_wo_entrp">   -513.57241729 </i>
    <i name="e_0_energy">   -513.57241729 </i>
   </energy>
  </scstep>
  <scstep>
   <time name="dav">  266.59   38.33</time>
   <time name="total">  277.56   40.56</time>
   <dipole>
    <v name="dipole">      0.00000000       0.00000000       0.08517782 </v>
    <i name="Tr[quadrupol]">  -7097.53953055 </i>
    <i name="Echarged">      0.00000000 </i>
    <i name="Edipol_quadrupol">      0.00000000 </i>
    <i name="Eion">      0.00000000 </i>
   </dipole>
   <energy>
    <i name="e_fr_energy">   -513.57248329 </i>
    <i name="e_wo_entrp">   -513.57248329 </i>
    <i name="e_0_energy">   -513.57248329 </i>
   </energy>
  </scstep>
  <scstep>
   <time name="dav">  247.28   35.51</time>
   <time name="total">  258.22   37.74</time>
   <dipole>
    <v name="dipole">      0.00000000       0.00000000       0.08538961 </v>
    <i name="Tr[quadrupol]">  -7097.55208485 </i>
    <i name="Echarged">      0.00000000 </i>
    <i name="Edipol_quadrupol">      0.00000000 </i>
    <i name="Eion">      0.00000000 </i>
   </dipole>
   <energy>
    <i name="e_fr_energy">   -513.57251801 </i>
    <i name="e_wo_entrp">   -513.57251801 </i>
    <i name="e_0_energy">   -513.57251801 </i>
   </energy>
  </scstep>
  <scstep>
   <time name="dav">  123.21   22.97</time>
   <time name="total">  131.74   24.66</time>
   <dipole>
    <v name="dipole">      0.00000000       0.00000000       0.08568561 </v>
    <i name="Tr[quadrupol]">  -7097.55123084 </i>
    <i name="Echarged">      0.00000000 </i>
    <i name="Edipol_quadrupol">      0.00000000 </i>
    <i name="Eion">      0.00000000 </i>
   </dipole>
   <energy>
    <i name="alphaZ">   1869.35238139 </i>
    <i name="ewald"> 210398.21261031 </i>
    <i name="hartreedc">-262163.46001733 </i>
    <i name="XCdc">   1004.13249602 </i>
    <i name="pawpsdc">  56077.52584426 </i>
    <i name="pawaedc"> -57208.37043463 </i>
    <i name="eentropy">      0.00000000 </i>
    <i name="bandstr">  -4344.54927114 </i>
    <i name="atom">  53853.58386974 </i>
    <i name="e_fr_energy">   -513.57252138 </i>
    <i name="e_wo_entrp">   -513.57252138 </i>
    <i name="e_0_energy">   -513.57252138 </i>
   </energy>
  </scstep>
  <structure>
   <crystal>
    <varray name="basis" >
     <v>       8.53269958       0.00000000       0.00000000 </v>
     <v>      -0.00051933       8.49699972       0.00000000 </v>
     <v>       0.00000000       0.00000000      23.59499931 </v>
    </varray>
    <i name="volume">   1710.69280467 </i>
    <varray name="rec_basis" >
     <v>       0.11719620       0.00000716       0.00000000 </v>
     <v>       0.00000000       0.11768860       0.00000000 </v>
     <v>       0.00000000       0.00000000       0.04238186 </v>
    </varray>
   </crystal>
   <varray name="positions" >
    <v>       0.00086000       0.99993000       0.24271000 </v>
    <v>       0.16724123       0.16532663       0.30394339 </v>
    <v>       0.49829084       0.16380705       0.29955680 </v>
    <v>       0.66822000       0.00107000       0.24272000 </v>
    <v>       0.83672777       0.17037063       0.30156466 </v>
    <v>       0.00044000       0.33497000       0.24240000 </v>
    <v>       0.16753604       0.50071261       0.30462257 </v>
    <v>       0.33469000       0.33305000       0.24267000 </v>
    <v>       0.50427462       0.50218336       0.30069597 </v>
    <v>       0.82993285       0.50069935       0.30131577 </v>
    <v>       0.16768928       0.83389898       0.30664764 </v>
    <v>       0.33342000       0.66555000       0.24261000 </v>
    <v>       0.83481450       0.83386474       0.30408702 </v>
    <v>       0.00064000       0.00119000       0.00199000 </v>
    <v>       0.98884752       0.00965484       0.36258730 </v>
    <v>       0.16843000       0.16962000       0.06269000 </v>
    <v>       0.33460000       0.00297000       0.00254000 </v>
    <v>       0.34672770       0.01228145       0.36373375 </v>
    <v>       0.50463000       0.16850000       0.06120000 </v>
    <v>       0.83272000       0.16670000       0.06193000 </v>
    <v>       0.00004000       0.33467000       0.00213000 </v>
    <v>       0.00136425       0.33153553       0.36061831 </v>
    <v>       0.16757000       0.49895000       0.06268000 </v>
    <v>       0.50099000       0.49896000       0.06206000 </v>
    <v>       0.83393000       0.50234000       0.06235000 </v>
    <v>       0.00121000       0.66785000       0.00188000 </v>
    <v>       0.98965477       0.65839557       0.36110335 </v>
    <v>       0.16792000       0.83462000       0.06228000 </v>
    <v>       0.33437000       0.66664000       0.00225000 </v>
    <v>       0.34755001       0.65398105       0.36270453 </v>
    <v>       0.50152000       0.83563000       0.06217000 </v>
    <v>       0.66753000       0.66705000       0.00175000 </v>
    <v>       0.66094744       0.67320425       0.36128660 </v>
    <v>       0.83293000       0.83584000       0.06235000 </v>
    <v>       0.00121000       0.00098000       0.12225000 </v>
    <v>       0.16700000       0.16811000       0.18239000 </v>
    <v>       0.33470000       0.00227000       0.12192000 </v>
    <v>       0.50174000       0.16716000       0.18263000 </v>
    <v>       0.83421000       0.16639000       0.18283000 </v>
    <v>       0.16964000       0.49868000       0.18209000 </v>
    <v>       0.50219000       0.50081000       0.18317000 </v>
    <v>       0.66741000       0.33395000       0.12233000 </v>
    <v>       0.83134000       0.50253000       0.18283000 </v>
    <v>       0.00132000       0.66795000       0.12253000 </v>
    <v>       0.16898000       0.83509000       0.18243000 </v>
    <v>       0.33446000       0.66703000       0.12223000 </v>
    <v>       0.49971000       0.83538000       0.18278000 </v>
    <v>       0.66698000       0.66840000       0.12259000 </v>
    <v>       0.83488000       0.83403000       0.18294000 </v>
    <v>       0.33558000       0.99863000       0.24353000 </v>
    <v>       0.66801000       0.33262000       0.24229000 </v>
    <v>       0.00448000       0.66739000       0.24217000 </v>
    <v>       0.49499758       0.83444516       0.30142438 </v>
    <v>       0.66521000       0.67351000       0.24327000 </v>
    <v>       0.66620000       0.99680000       0.00000000 </v>
    <v>       0.66836834       0.00980947       0.36235523 </v>
    <v>       0.33213000       0.33386000       0.00135000 </v>
    <v>       0.34218053       0.33245841       0.36351972 </v>
    <v>       0.67040000       0.33673000       0.00321000 </v>
    <v>       0.65956162       0.32944426       0.37073792 </v>
    <v>       0.66728000       0.99998000       0.12246000 </v>
    <v>       0.99806000       0.33495000       0.12235000 </v>
    <v>       0.33675000       0.33238000       0.12261000 </v>
    <v>       0.16861731       0.83212528       0.43627039 </v>
   </varray>
  </structure>
  <varray name="forces" >
   <v>       0.08667645      -0.05453914       0.05394271 </v>
   <v>       0.00743127       0.00687976       0.00257312 </v>
   <v>       0.00563746       0.00243465       0.02168077 </v>
   <v>       0.15170898      -0.12448139      -0.24045138 </v>
   <v>       0.00364040      -0.00949249       0.00467308 </v>
   <v>       0.17822018       0.09156379      -0.19998788 </v>
   <v>       0.00502524      -0.00682182      -0.00922422 </v>
   <v>      -0.19186723       0.08179034      -0.21260331 </v>
   <v>      -0.00428192      -0.00584440      -0.01095521 </v>
   <v>      -0.00106571       0.00408955       0.00828237 </v>
   <v>       0.00485284      -0.00379907      -0.00549535 </v>
   <v>      -0.14119146       0.00317364       0.02145119 </v>
   <v>      -0.00350577       0.00870418      -0.00710322 </v>
   <v>       0.02909755      -0.05723981       0.28132188 </v>
   <v>       0.01002554       0.00150160       0.00067702 </v>
   <v>      -0.32534337      -0.29319034      -0.01165397 </v>
   <v>      -0.03229024      -0.01971744       0.41019498 </v>
   <v>      -0.00080078       0.01127496       0.00480851 </v>
   <v>      -0.21686167      -0.17091704       0.54371434 </v>
   <v>       0.41763377       0.16004576       0.18626677 </v>
   <v>      -0.08060771       0.02255416       0.42588892 </v>
   <v>      -0.01603552      -0.00071639      -0.00347266 </v>
   <v>      -0.25583898       0.31363011      -0.01358623 </v>
   <v>       0.13986379       0.46264171       0.18937537 </v>
   <v>       0.13854679       0.10871632      -0.09090169 </v>
   <v>       0.09687389       0.03893014       0.14972741 </v>
   <v>       0.00566151       0.00587302      -0.01822542 </v>
   <v>      -0.04551831      -0.00236556      -0.42508023 </v>
   <v>      -0.11362933       0.04337728       0.26026298 </v>
   <v>      -0.00518977      -0.00326829       0.00358114 </v>
   <v>      -0.27447070      -0.35939779      -0.00269409 </v>
   <v>      -0.02735124      -0.07784959       0.43814045 </v>
   <v>      -0.00643585      -0.03191177      -0.00114988 </v>
   <v>       0.35683074      -0.34731922      -0.01048693 </v>
   <v>       0.01686853       0.14012760      -0.00537034 </v>
   <v>      -0.03209062      -0.00435646       0.03502513 </v>
   <v>       0.08035125       0.06173185       0.06374758 </v>
   <v>      -0.09987637      -0.05890835      -0.04334292 </v>
   <v>       0.07797326       0.02037371       0.00053458 </v>
   <v>      -0.02522351       0.01132141       0.23660139 </v>
   <v>      -0.00085523       0.07283194       0.00088689 </v>
   <v>       0.06189366      -0.00261175      -0.02011000 </v>
   <v>       0.05291089       0.07250047       0.01963041 </v>
   <v>      -0.03969660      -0.06900449      -0.06311301 </v>
   <v>      -0.04851755      -0.02237242       0.06203850 </v>
   <v>       0.13810954      -0.00989373      -0.02990583 </v>
   <v>       0.00025577      -0.03448348      -0.00629541 </v>
   <v>      -0.06828790      -0.06876729       0.07342611 </v>
   <v>       0.02709824      -0.03663169       0.20498009 </v>
   <v>       0.06348546      -0.09276655       0.09695007 </v>
   <v>      -0.06628812      -0.09968391       0.19017532 </v>
   <v>       0.01294530      -0.02486455       0.00564903 </v>
   <v>       0.00153820      -0.00019020      -0.03019022 </v>
   <v>      -0.09873782       0.21504830      -0.13640708 </v>
   <v>       0.06071132       0.42195499      -0.74829888 </v>
   <v>       0.00767715       0.01479081      -0.01755289 </v>
   <v>       0.33197230       0.01559673      -0.62614357 </v>
   <v>      -0.00039190      -0.00735709      -0.01046708 </v>
   <v>      -0.31326851      -0.35559278      -0.18833820 </v>
   <v>      -0.01338903       0.01240799       0.00951975 </v>
   <v>      -0.09648425       0.17053691      -0.31441863 </v>
   <v>      -0.06999345      -0.06378399      -0.06159019 </v>
   <v>       0.13005603      -0.08349763      -0.44453884 </v>
   <v>       0.01381309       0.00723423       0.00342691 </v>
  </varray>
  <varray name="stress" >
   <v>     -18.79330564       0.84639806       0.19862371 </v>
   <v>       0.84639853     -18.62617626       0.13006157 </v>
   <v>       0.19862480       0.13006165      -3.88845236 </v>
  </varray>
  <energy>
   <i name="e_fr_energy">   -513.57252138 </i>
   <i name="e_wo_entrp">   -513.57252138 </i>
   <i name="e_0_energy">   -513.57252138 </i>
  </energy>
  <time name="totalsc">14226.01 2109.42</time>
  <eigenvalues>
   <array>
    <dimension dim="1">band</dimension>
    <dimension dim="2">kpoint</dimension>
    <dimension dim="3">spin</dimension>
    <field>eigene</field>
    <field>occ</field>
    <set>
     <set comment="spin 1">
      <set comment="kpoint 1">
       <r>  -42.7296    1.0000 </r>
       <r>  -42.7139    1.0000 </r>
       <r>  -42.7009    1.0000 </r>
       <r>  -42.6910    1.0000 </r>
       <r>  -42.6690    1.0000 </r>
       <r>  -42.6476    1.0000 </r>
       <r>  -42.6465    1.0000 </r>
       <r>  -42.6268    1.0000 </r>
       <r>  -42.6240    1.0000 </r>
       <r>  -42.6177    1.0000 </r>
       <r>  -42.6019    1.0000 </r>
       <r>  -42.5949    1.0000 </r>
       <r>  -42.2142    1.0000 </r>
       <r>  -42.1317    1.0000 </r>
       <r>  -42.0671    1.0000 </r>
       <r>  -41.9111    1.0000 </r>
       <r>  -41.9007    1.0000 </r>
       <r>  -41.8950    1.0000 </r>
       <r>  -41.8710    1.0000 </r>
       <r>  -41.8207    1.0000 </r>
       <r>  -41.7956    1.0000 </r>
       <r>  -41.7822    1.0000 </r>
       <r>  -41.7590    1.0000 </r>
       <r>  -41.7556    1.0000 </r>
       <r>  -41.7281    1.0000 </r>
       <r>  -41.7198    1.0000 </r>
       <r>  -41.7099    1.0000 </r>
       <r>  -41.7023    1.0000 </r>
       <r>  -41.6864    1.0000 </r>
       <r>  -41.6769    1.0000 </r>
       <r>  -41.6678    1.0000 </r>
       <r>  -41.6596    1.0000 </r>
       <r>  -41.6491    1.0000 </r>
       <r>  -41.6206    1.0000 </r>
       <r>  -41.6185    1.0000 </r>
       <r>  -41.5991    1.0000 </r>
       <r>  -40.2267    1.0000 </r>
       <r>  -40.2019    1.0000 </r>
       <r>  -40.1240    1.0000 </r>
       <r>  -40.1239    1.0000 </r>
       <r>  -40.1032    1.0000 </r>
       <r>  -40.0224    1.0000 </r>
       <r>  -15.4110    1.0000 </r>
       <r>  -15.4091    1.0000 </r>
       <r>  -15.4072    1.0000 </r>
       <r>  -15.3668    1.0000 </r>
       <r>  -15.3580    1.0000 </r>
       <r>   -7.5638    1.0000 </r>
       <r>   -7.1014    1.0000 </r>
       <r>   -6.1133    1.0000 </r>
       <r>   -5.2148    1.0000 </r>
       <r>   -5.1458    1.0000 </r>
       <r>   -5.1335    1.0000 </r>
       <r>   -5.1042    1.0000 </r>
       <r>   -4.8210    1.0000 </r>
       <r>   -4.5748    1.0000 </r>
       <r>   -4.5295    1.0000 </r>
       <r>   -4.4882    1.0000 </r>
       <r>   -4.4602    1.0000 </r>
       <r>   -4.0561    1.0000 </r>
       <r>   -4.0362    1.0000 </r>
       <r>   -4.0275    1.0000 </r>
       <r>   -4.0091    1.0000 </r>
       <r>   -3.9978    1.0000 </r>
       <r>   -3.9679    1.0000 </r>
       <r>   -3.9576    1.0000 </r>
       <r>   -3.9279    1.0000 </r>
       <r>   -3.7862    1.0000 </r>
       <r>   -3.7590    1.0000 </r>
       <r>   -3.6176    1.0000 </r>
       <r>   -3.5748    1.0000 </r>
       <r>   -3.5561    1.0000 </r>
       <r>   -3.5241    1.0000 </r>
       <r>   -3.4908    1.0000 </r>
       <r>   -3.4014    1.0000 </r>
       <r>   -3.3663    1.0000 </r>
       <r>   -3.3435    1.0000 </r>
       <r>   -3.3259    1.0000 </r>
       <r>   -3.3081    1.0000 </r>
       <r>   -3.2945    1.0000 </r>
       <r>   -3.2759    1.0000 </r>
       <r>   -3.2655    1.0000 </r>
       <r>   -3.2488    1.0000 </r>
       <r>   -3.2437    1.0000 </r>
       <r>   -3.2100    1.0000 </r>
       <r>   -3.1980    1.0000 </r>
[...]
       <r>   -38.3918     0.0000    42.0000 </r>
       <r>   -38.2212     0.0000    42.0000 </r>
       <r>   -38.0507     0.0000    42.0000 </r>
       <r>   -37.8801     0.0000    42.0000 </r>
       <r>   -37.7095     0.0000    42.0000 </r>
       <r>   -37.5389     0.0000    42.0000 </r>
       <r>   -37.3683     0.0000    42.0000 </r>
       <r>   -37.1977     0.0000    42.0000 </r>
       <r>   -37.0271     0.0000    42.0000 </r>
       <r>   -36.8565     0.0000    42.0000 </r>
       <r>   -36.6859     0.0000    42.0000 </r>
       <r>   -36.5153     0.0000    42.0000 </r>
       <r>   -36.3447     0.0000    42.0000 </r>
       <r>   -36.1742     0.0000    42.0000 </r>
       <r>   -36.0036     0.0000    42.0000 </r>
       <r>   -35.8330     0.0000    42.0000 </r>
       <r>   -35.6624     0.0000    42.0000 </r>
       <r>   -35.4918     0.0000    42.0000 </r>
       <r>   -35.3212     0.0000    42.0000 </r>
       <r>   -35.1506     0.0000    42.0000 </r>
       <r>   -34.9800     0.0000    42.0000 </r>
       <r>   -34.8094     0.0000    42.0000 </r>
       <r>   -34.6388     0.0000    42.0000 </r>
       <r>   -34.4682     0.0000    42.0000 </r>
       <r>   -34.2976     0.0000    42.0000 </r>
       <r>   -34.1271     0.0000    42.0000 </r>
       <r>   -33.9565     0.0000    42.0000 </r>
       <r>   -33.7859     0.0000    42.0000 </r>
       <r>   -33.6153     0.0000    42.0000 </r>
       <r>   -33.4447     0.0000    42.0000 </r>
       <r>   -33.2741     0.0000    42.0000 </r>
       <r>   -33.1035     0.0000    42.0000 </r>
       <r>   -32.9329     0.0000    42.0000 </r>
       <r>   -32.7623     0.0000    42.0000 </r>
       <r>   -32.5917     0.0000    42.0000 </r>
       <r>   -32.4211     0.0000    42.0000 </r>
       <r>   -32.2506     0.0000    42.0000 </r>
       <r>   -32.0800     0.0000    42.0000 </r>
       <r>   -31.9094     0.0000    42.0000 </r>
       <r>   -31.7388     0.0000    42.0000 </r>
       <r>   -31.5682     0.0000    42.0000 </r>
       <r>   -31.3976     0.0000    42.0000 </r>
       <r>   -31.2270     0.0000    42.0000 </r>
       <r>   -31.0564     0.0000    42.0000 </r>
       <r>   -30.8858     0.0000    42.0000 </r>
       <r>   -30.7152     0.0000    42.0000 </r>
       <r>   -30.5446     0.0000    42.0000 </r>
       <r>   -30.3740     0.0000    42.0000 </r>
       <r>   -30.2035     0.0000    42.0000 </r>
       <r>   -30.0329     0.0000    42.0000 </r>
       <r>   -29.8623     0.0000    42.0000 </r>
       <r>   -29.6917     0.0000    42.0000 </r>
       <r>   -29.5211     0.0000    42.0000 </r>
       <r>   -29.3505     0.0000    42.0000 </r>
       <r>   -29.1799     0.0000    42.0000 </r>
       <r>   -29.0093     0.0000    42.0000 </r>
       <r>   -28.8387     0.0000    42.0000 </r>
       <r>   -28.6681     0.0000    42.0000 </r>
       <r>   -28.4975     0.0000    42.0000 </r>
       <r>   -28.3269     0.0000    42.0000 </r>
       <r>   -28.1564     0.0000    42.0000 </r>
       <r>   -27.9858     0.0000    42.0000 </r>
       <r>   -27.8152     0.0000    42.0000 </r>
       <r>   -27.6446     0.0000    42.0000 </r>
       <r>   -27.4740     0.0000    42.0000 </r>
       <r>   -27.3034     0.0000    42.0000 </r>
       <r>   -27.1328     0.0000    42.0000 </r>
       <r>   -26.9622     0.0000    42.0000 </r>
       <r>   -26.7916     0.0000    42.0000 </r>
       <r>   -26.6210     0.0000    42.0000 </r>
       <r>   -26.4504     0.0000    42.0000 </r>
       <r>   -26.2799     0.0000    42.0000 </r>
       <r>   -26.1093     0.0000    42.0000 </r>
       <r>   -25.9387     0.0000    42.0000 </r>
       <r>   -25.7681     0.0000    42.0000 </r>
       <r>   -25.5975     0.0000    42.0000 </r>
       <r>   -25.4269     0.0000    42.0000 </r>
       <r>   -25.2563     0.0000    42.0000 </r>
       <r>   -25.0857     0.0000    42.0000 </r>
       <r>   -24.9151     0.0000    42.0000 </r>
       <r>   -24.7445     0.0000    42.0000 </r>
       <r>   -24.5739     0.0000    42.0000 </r>
       <r>   -24.4033     0.0000    42.0000 </r>
       <r>   -24.2328     0.0000    42.0000 </r>
       <r>   -24.0622     0.0000    42.0000 </r>
       <r>   -23.8916     0.0000    42.0000 </r>
       <r>   -23.7210     0.0000    42.0000 </r>
       <r>   -23.5504     0.0000    42.0000 </r>
       <r>   -23.3798     0.0000    42.0000 </r>
       <r>   -23.2092     0.0000    42.0000 </r>
       <r>   -23.0386     0.0000    42.0000 </r>
       <r>   -22.8680     0.0000    42.0000 </r>
       <r>   -22.6974     0.0000    42.0000 </r>
       <r>   -22.5268     0.0000    42.0000 </r>
       <r>   -22.3562     0.0000    42.0000 </r>
       <r>   -22.1857     0.0000    42.0000 </r>
       <r>   -22.0151     0.0000    42.0000 </r>
       <r>   -21.8445     0.0000    42.0000 </r>
       <r>   -21.6739     0.0000    42.0000 </r>
       <r>   -21.5033     0.0000    42.0000 </r>
       <r>   -21.3327     0.0000    42.0000 </r>
       <r>   -21.1621     0.0000    42.0000 </r>
       <r>   -20.9915     0.0000    42.0000 </r>
       <r>   -20.8209     0.0000    42.0000 </r>
       <r>   -20.6503     0.0000    42.0000 </r>
       <r>   -20.4797     0.0000    42.0000 </r>
       <r>   -20.3092     0.0000    42.0000 </r>
       <r>   -20.1386     0.0000    42.0000 </r>
       <r>   -19.9680     0.0000    42.0000 </r>
       <r>   -19.7974     0.0000    42.0000 </r>
       <r>   -19.6268     0.0000    42.0000 </r>
       <r>   -19.4562     0.0000    42.0000 </r>
       <r>   -19.2856     0.0000    42.0000 </r>
       <r>   -19.1150     0.0000    42.0000 </r>
       <r>   -18.9444     0.0000    42.0000 </r>
       <r>   -18.7738     0.0000    42.0000 </r>
       <r>   -18.6032     0.0000    42.0000 </r>
       <r>   -18.4326     0.0000    42.0000 </r>
       <r>   -18.2621     0.0000    42.0000 </r>
       <r>   -18.0915     0.0000    42.0000 </r>
       <r>   -17.9209     0.0000    42.0000 </r>
       <r>   -17.7503     0.0000    42.0000 </r>
       <r>   -17.5797     0.0000    42.0000 </r>
       <r>   -17.4091     0.0000    42.0000 </r>
       <r>   -17.2385     0.0000    42.0000 </r>
       <r>   -17.0679     0.0000    42.0000 </r>
       <r>   -16.8973     0.0000    42.0000 </r>
       <r>   -16.7267     0.0000    42.0000 </r>
       <r>   -16.5561     0.0000    42.0000 </r>
       <r>   -16.3856     0.0000    42.0000 </r>
       <r>   -16.2150     0.0000    42.0000 </r>
       <r>   -16.0444     0.0000    42.0000 </r>
       <r>   -15.8738     0.0000    42.0000 </r>
       <r>   -15.7032     0.0000    42.0000 </r>
       <r>   -15.5326     0.0000    42.0000 </r>
       <r>   -15.3620    29.3098    47.0000 </r>
       <r>   -15.1914     0.0000    47.0000 </r>
       <r>   -15.0208     0.0000    47.0000 </r>
       <r>   -14.8502     0.0000    47.0000 </r>
       <r>   -14.6796     0.0000    47.0000 </r>
       <r>   -14.5090     0.0000    47.0000 </r>
       <r>   -14.3385     0.0000    47.0000 </r>
       <r>   -14.1679     0.0000    47.0000 </r>
       <r>   -13.9973     0.0000    47.0000 </r>
       <r>   -13.8267     0.0000    47.0000 </r>
       <r>   -13.6561     0.0000    47.0000 </r>
       <r>   -13.4855     0.0000    47.0000 </r>
       <r>   -13.3149     0.0000    47.0000 </r>
       <r>   -13.1443     0.0000    47.0000 </r>
       <r>   -12.9737     0.0000    47.0000 </r>
       <r>   -12.8031     0.0000    47.0000 </r>
       <r>   -12.6325     0.0000    47.0000 </r>
       <r>   -12.4619     0.0000    47.0000 </r>
       <r>   -12.2914     0.0000    47.0000 </r>
       <r>   -12.1208     0.0000    47.0000 </r>
       <r>   -11.9502     0.0000    47.0000 </r>
       <r>   -11.7796     0.0000    47.0000 </r>
       <r>   -11.6090     0.0000    47.0000 </r>
       <r>   -11.4384     0.0000    47.0000 </r>
       <r>   -11.2678     0.0000    47.0000 </r>
       <r>   -11.0972     0.0000    47.0000 </r>
       <r>   -10.9266     0.0000    47.0000 </r>
       <r>   -10.7560     0.0000    47.0000 </r>
       <r>   -10.5854     0.0000    47.0000 </r>
       <r>   -10.4149     0.0000    47.0000 </r>
       <r>   -10.2443     0.0000    47.0000 </r>
       <r>   -10.0737     0.0000    47.0000 </r>
       <r>    -9.9031     0.0000    47.0000 </r>
       <r>    -9.7325     0.0000    47.0000 </r>
       <r>    -9.5619     0.0000    47.0000 </r>
       <r>    -9.3913     0.0000    47.0000 </r>
       <r>    -9.2207     0.0000    47.0000 </r>
       <r>    -9.0501     0.0000    47.0000 </r>
       <r>    -8.8795     0.0000    47.0000 </r>
       <r>    -8.7089     0.0000    47.0000 </r>
       <r>    -8.5383     0.0000    47.0000 </r>
       <r>    -8.3678     0.0000    47.0000 </r>
       <r>    -8.1972     0.0000    47.0000 </r>
       <r>    -8.0266     0.0000    47.0000 </r>
       <r>    -7.8560     0.0000    47.0000 </r>
       <r>    -7.6854     0.0000    47.0000 </r>
       <r>    -7.5148     5.8620    48.0000 </r>
       <r>    -7.3442     0.0000    48.0000 </r>
       <r>    -7.1736     0.0000    48.0000 </r>
       <r>    -7.0030     0.1760    48.0011 </r>
       <r>    -6.8324     1.6712    48.2174 </r>
       <r>    -6.6618     1.4903    48.4656 </r>
       <r>    -6.4913     1.5918    48.7431 </r>
       <r>    -6.3207     1.9855    48.9737 </r>
       <r>    -6.1501     1.6735    49.2858 </r>
       <r>    -5.9795     1.3817    49.5448 </r>
       <r>    -5.8089     2.7579    49.9940 </r>
       <r>    -5.6383     3.3626    50.5166 </r>
       <r>    -5.4677     3.9830    51.1845 </r>
       <r>    -5.2971     2.1848    51.6323 </r>
       <r>    -5.1265     3.1754    52.1258 </r>
       <r>    -4.9559     4.8737    52.7041 </r>
       <r>    -4.7853     4.4327    53.7428 </r>
       <r>    -4.6147     3.8269    54.3124 </r>
       <r>    -4.4442     5.2360    55.1832 </r>
       <r>    -4.2736     3.0777    55.6888 </r>
       <r>    -4.1030    10.2510    56.3899 </r>
       <r>    -3.9324     8.2446    58.2192 </r>
       <r>    -3.7618     7.8463    59.2346 </r>
       <r>    -3.5912     5.1554    60.5987 </r>
       <r>    -3.4206     8.0592    61.5608 </r>
       <r>    -3.2500    16.7108    63.5269 </r>
       <r>    -3.0794    18.7029    66.1950 </r>
       <r>    -2.9088    19.6425    69.5454 </r>
       <r>    -2.7382    41.9757    73.0310 </r>
       <r>    -2.5676    16.8545    76.6003 </r>
       <r>    -2.3971    32.1497    80.0602 </r>
       <r>    -2.2265    44.3607    84.9941 </r>
       <r>    -2.0559    50.4043    90.5699 </r>
       <r>    -1.8853    65.2327    95.8352 </r>
       <r>    -1.7147    60.4664   102.2113 </r>
       <r>    -1.5441    61.8091   107.7000 </r>
       <r>    -1.3735    68.6005   114.8514 </r>
       <r>    -1.2029    94.1679   123.4850 </r>
       <r>    -1.0323   131.8365   131.9271 </r>
       <r>    -0.8617   100.9270   140.4972 </r>
       <r>    -0.6911    85.4391   149.3770 </r>
       <r>    -0.5206   131.5103   159.4738 </r>
       <r>    -0.3500   119.5469   170.8689 </r>
       <r>    -0.1794   131.1883   182.2074 </r>
       <r>    -0.0088    84.5105   192.9453 </r>
       <r>     0.1618    85.3461   201.8534 </r>
       <r>     0.3324    67.0743   208.7272 </r>
       <r>     0.5030    62.4485   215.0177 </r>
       <r>     0.6736    58.4494   220.2659 </r>
       <r>     0.8442    46.2060   224.6070 </r>
       <r>     1.0148    64.4015   230.7701 </r>
       <r>     1.1854    52.4129   237.6386 </r>
       <r>     1.3560    91.1848   246.3682 </r>
       <r>     1.5265   116.1831   256.1140 </r>
       <r>     1.6971   111.1762   266.6329 </r>
       <r>     1.8677   122.7320   279.0532 </r>
       <r>     2.0383   105.7352   290.3840 </r>
       <r>     2.2089   138.3881   304.1099 </r>
       <r>     2.3795   160.9602   319.1418 </r>
       <r>     2.5501   244.3669   335.3666 </r>
       <r>     2.7207   150.5393   351.4841 </r>
       <r>     2.8913    85.3038   362.7933 </r>
       <r>     3.0619    67.1392   370.5759 </r>
       <r>     3.2325    53.3953   375.6218 </r>
       <r>     3.4031     0.0000   376.0000 </r>
       <r>     3.5736     0.0000   376.0000 </r>
       <r>     3.7442     0.0000   376.0000 </r>
       <r>     3.9148     0.0000   376.0000 </r>
       <r>     4.0854     0.0000   376.0000 </r>
       <r>     4.2560     0.0000   376.0000 </r>
       <r>     4.4266     0.0000   376.0000 </r>
       <r>     4.5972     0.0000   376.0000 </r>
       <r>     4.7678     0.0000   376.0000 </r>
       <r>     4.9384     0.0000   376.0000 </r>
       <r>     5.1090     0.0000   376.0000 </r>
       <r>     5.2796     0.0000   376.0000 </r>
       <r>     5.4501     0.0000   376.0000 </r>
       <r>     5.6207     0.0000   376.0000 </r>
      </set>
     </set>
    </array>
   </total>
  </dos>
 </calculation>
 <structure name="finalpos" >
  <crystal>
   <varray name="basis" >
    <v>       8.53269958       0.00000000       0.00000000 </v>
    <v>      -0.00051933       8.49699972       0.00000000 </v>
    <v>       0.00000000       0.00000000      23.59499931 </v>
   </varray>
   <i name="volume">   1710.69280467 </i>
   <varray name="rec_basis" >
    <v>       0.11719620       0.00000716       0.00000000 </v>
    <v>       0.00000000       0.11768860       0.00000000 </v>
    <v>       0.00000000       0.00000000       0.04238186 </v>
   </varray>
  </crystal>
  <varray name="positions" >
   <v>       0.00086000       0.99993000       0.24271000 </v>
   <v>       0.16724123       0.16532663       0.30394339 </v>
   <v>       0.49829084       0.16380705       0.29955680 </v>
   <v>       0.66822000       0.00107000       0.24272000 </v>
   <v>       0.83672777       0.17037063       0.30156466 </v>
   <v>       0.00044000       0.33497000       0.24240000 </v>
   <v>       0.16753604       0.50071261       0.30462257 </v>
   <v>       0.33469000       0.33305000       0.24267000 </v>
   <v>       0.50427462       0.50218336       0.30069597 </v>
   <v>       0.82993285       0.50069935       0.30131577 </v>
   <v>       0.16768928       0.83389898       0.30664764 </v>
   <v>       0.33342000       0.66555000       0.24261000 </v>
   <v>       0.83481450       0.83386474       0.30408702 </v>
   <v>       0.00064000       0.00119000       0.00199000 </v>
   <v>       0.98884752       0.00965484       0.36258730 </v>
   <v>       0.16843000       0.16962000       0.06269000 </v>
   <v>       0.33460000       0.00297000       0.00254000 </v>
   <v>       0.34672770       0.01228145       0.36373375 </v>
   <v>       0.50463000       0.16850000       0.06120000 </v>
   <v>       0.83272000       0.16670000       0.06193000 </v>
   <v>       0.00004000       0.33467000       0.00213000 </v>
   <v>       0.00136425       0.33153553       0.36061831 </v>
   <v>       0.16757000       0.49895000       0.06268000 </v>
   <v>       0.50099000       0.49896000       0.06206000 </v>
   <v>       0.83393000       0.50234000       0.06235000 </v>
   <v>       0.00121000       0.66785000       0.00188000 </v>
   <v>       0.98965477       0.65839557       0.36110335 </v>
   <v>       0.16792000       0.83462000       0.06228000 </v>
   <v>       0.33437000       0.66664000       0.00225000 </v>
   <v>       0.34755001       0.65398105       0.36270453 </v>
   <v>       0.50152000       0.83563000       0.06217000 </v>
   <v>       0.66753000       0.66705000       0.00175000 </v>
   <v>       0.66094744       0.67320425       0.36128660 </v>
   <v>       0.83293000       0.83584000       0.06235000 </v>
   <v>       0.00121000       0.00098000       0.12225000 </v>
   <v>       0.16700000       0.16811000       0.18239000 </v>
   <v>       0.33470000       0.00227000       0.12192000 </v>
   <v>       0.50174000       0.16716000       0.18263000 </v>
   <v>       0.83421000       0.16639000       0.18283000 </v>
   <v>       0.16964000       0.49868000       0.18209000 </v>
   <v>       0.50219000       0.50081000       0.18317000 </v>
   <v>       0.66741000       0.33395000       0.12233000 </v>
   <v>       0.83134000       0.50253000       0.18283000 </v>
   <v>       0.00132000       0.66795000       0.12253000 </v>
   <v>       0.16898000       0.83509000       0.18243000 </v>
   <v>       0.33446000       0.66703000       0.12223000 </v>
   <v>       0.49971000       0.83538000       0.18278000 </v>
   <v>       0.66698000       0.66840000       0.12259000 </v>
   <v>       0.83488000       0.83403000       0.18294000 </v>
   <v>       0.33558000       0.99863000       0.24353000 </v>
   <v>       0.66801000       0.33262000       0.24229000 </v>
   <v>       0.00448000       0.66739000       0.24217000 </v>
   <v>       0.49499758       0.83444516       0.30142438 </v>
   <v>       0.66521000       0.67351000       0.24327000 </v>
   <v>       0.66620000       0.99680000       0.00000000 </v>
   <v>       0.66836834       0.00980947       0.36235523 </v>
   <v>       0.33213000       0.33386000       0.00135000 </v>
   <v>       0.34218053       0.33245841       0.36351972 </v>
   <v>       0.67040000       0.33673000       0.00321000 </v>
   <v>       0.65956162       0.32944426       0.37073792 </v>
   <v>       0.66728000       0.99998000       0.12246000 </v>
   <v>       0.99806000       0.33495000       0.12235000 </v>
   <v>       0.33675000       0.33238000       0.12261000 </v>
   <v>       0.16861731       0.83212528       0.43627039 </v>
  </varray>
  <varray name="selective"  type="logical" >
   <v type="logical" >  F  F  F </v>
   <v type="logical" >  T  T  T </v>
   <v type="logical" >  T  T  T </v>
   <v type="logical" >  F  F  F </v>
   <v type="logical" >  T  T  T </v>
   <v type="logical" >  F  F  F </v>
   <v type="logical" >  T  T  T </v>
   <v type="logical" >  F  F  F </v>
   <v type="logical" >  T  T  T </v>
   <v type="logical" >  T  T  T </v>
   <v type="logical" >  T  T  T </v>
   <v type="logical" >  F  F  F </v>
   <v type="logical" >  T  T  T </v>
   <v type="logical" >  F  F  F </v>
   <v type="logical" >  T  T  T </v>
   <v type="logical" >  F  F  F </v>
   <v type="logical" >  F  F  F </v>
   <v type="logical" >  T  T  T </v>
   <v type="logical" >  F  F  F </v>
   <v type="logical" >  F  F  F </v>
   <v type="logical" >  F  F  F </v>
   <v type="logical" >  T  T  T </v>
   <v type="logical" >  F  F  F </v>
   <v type="logical" >  F  F  F </v>
   <v type="logical" >  F  F  F </v>
   <v type="logical" >  F  F  F </v>
   <v type="logical" >  T  T  T </v>
   <v type="logical" >  F  F  F </v>
   <v type="logical" >  F  F  F </v>
   <v type="logical" >  T  T  T </v>
   <v type="logical" >  F  F  F </v>
   <v type="logical" >  F  F  F </v>
   <v type="logical" >  T  T  T </v>
   <v type="logical" >  F  F  F </v>
   <v type="logical" >  F  F  F </v>
   <v type="logical" >  F  F  F </v>
   <v type="logical" >  F  F  F </v>
   <v type="logical" >  F  F  F </v>
   <v type="logical" >  F  F  F </v>
   <v type="logical" >  F  F  F </v>
   <v type="logical" >  F  F  F </v>
   <v type="logical" >  F  F  F </v>
   <v type="logical" >  F  F  F </v>
   <v type="logical" >  F  F  F </v>
   <v type="logical" >  F  F  F </v>
   <v type="logical" >  F  F  F </v>
   <v type="logical" >  F  F  F </v>
   <v type="logical" >  F  F  F </v>
   <v type="logical" >  F  F  F </v>
   <v type="logical" >  F  F  F </v>
   <v type="logical" >  F  F  F </v>
   <v type="logical" >  F  F  F </v>
   <v type="logical" >  T  T  T </v>
   <v type="logical" >  F  F  F </v>
   <v type="logical" >  F  F  F </v>
   <v type="logical" >  T  T  T </v>
   <v type="logical" >  F  F  F </v>
   <v type="logical" >  T  T  T </v>
   <v type="logical" >  F  F  F </v>
   <v type="logical" >  T  T  T </v>
   <v type="logical" >  F  F  F </v>
   <v type="logical" >  F  F  F </v>
   <v type="logical" >  F  F  F </v>
   <v type="logical" >  T  T  T </v>
  </varray>
  <nose>
   <v>      -3.00000000       0.00000000       0.00010000       0.00010000 </v>
  </nose>
 </structure>
</modeling>
