  64  64   0   0
  0.2672958E+02  0.8532700E-09  0.8497000E-09  0.2359500E-08  0.5000000E-15
  1.000000000000000E-004
  CAR 
 ni3al                                   
      5.45119274    -45.62057364  301      1.02508764      1.00000000
    -45.621  0.0000E+00  0.0000E+00  0.0000E+00  0.0000E+00
    -45.450  0.0000E+00  0.0000E+00  0.0000E+00  0.0000E+00
    -45.280  0.0000E+00  0.0000E+00  0.0000E+00  0.0000E+00
    -45.110  0.0000E+00  0.0000E+00  0.0000E+00  0.0000E+00
    -44.940  0.0000E+00  0.0000E+00  0.0000E+00  0.0000E+00
    -44.769  0.0000E+00  0.0000E+00  0.0000E+00  0.0000E+00
    -44.599  0.0000E+00 -0.1149E-33  0.0000E+00 -0.1957E-34
    -44.429  0.0000E+00 -0.9674E-26  0.0000E+00 -0.1647E-26
    -44.259  0.0000E+00 -0.6088E-19  0.0000E+00 -0.1036E-19
    -44.088 -0.3753E-35 -0.2760E-13 -0.6389E-36 -0.4699E-14
    -43.918 -0.5324E-27 -0.9534E-09 -0.9064E-28 -0.1623E-09
    -43.748 -0.5729E-20 -0.2471E-05 -0.9752E-21 -0.4208E-06
    -43.578 -0.4525E-14 -0.4852E-03 -0.7703E-15 -0.8302E-04
    -43.407 -0.2748E-09 -0.4927E-02 -0.4679E-10 -0.9217E-03
    -43.237 -0.1234E-05  0.6719E-01 -0.2101E-06  0.1052E-01
    -43.067 -0.3831E-03  0.2567E+00 -0.6542E-04  0.5422E-01
    -42.897 -0.4374E-02  0.1472E+00 -0.8100E-03  0.7927E-01
    -42.727  0.6752E-01  0.7141E-01  0.1068E-01  0.9143E-01
    -42.556  0.1126E+00  0.4336E-01  0.2985E-01  0.9881E-01
    -42.386  0.1231E-02  0.8015E-02  0.3006E-01  0.1002E+00
    -42.216  0.2242E-01 -0.9642E-03  0.3387E-01  0.1000E+00
    -42.046  0.3017E-01 -0.4559E-04  0.3901E-01  0.1000E+00
    -41.875  0.6007E-01 -0.2641E-03  0.4924E-01  0.9995E-01
    -41.705  0.2452E+00  0.6245E-04  0.9099E-01  0.9997E-01
    -41.535  0.1199E+00  0.2257E-01  0.1114E+00  0.1038E+00
    -41.365 -0.7437E-02  0.3325E-01  0.1101E+00  0.1095E+00
    -41.194 -0.7655E-03  0.3801E-02  0.1100E+00  0.1101E+00
    -41.024 -0.2757E-05 -0.6612E-03  0.1100E+00  0.1100E+00
    -40.854 -0.2067E-04 -0.1234E-04  0.1100E+00  0.1100E+00
    -40.684 -0.8855E-03 -0.2318E-03  0.1098E+00  0.1100E+00
    -40.513  0.4211E-02 -0.5340E-03  0.1106E+00  0.1099E+00
    -40.343  0.5119E-01  0.2602E-01  0.1193E+00  0.1143E+00
    -40.173  0.9171E-01  0.1474E-01  0.1349E+00  0.1168E+00
    -40.003  0.3190E-01  0.1712E-01  0.1403E+00  0.1197E+00
    -39.832 -0.1616E-02  0.4591E-01  0.1400E+00  0.1275E+00
    -39.662 -0.2683E-03  0.4411E-01  0.1400E+00  0.1350E+00
    -39.492 -0.1201E-05  0.2784E-01  0.1400E+00  0.1398E+00
    -39.322 -0.3400E-09  0.1716E-02  0.1400E+00  0.1401E+00
    -39.151 -0.6751E-14 -0.4680E-03  0.1400E+00  0.1400E+00
    -38.981  0.0000E+00 -0.6127E-05  0.1400E+00  0.1400E+00
    -38.811  0.0000E+00 -0.4557E-08  0.1400E+00  0.1400E+00
    -38.641  0.0000E+00 -0.2303E-12  0.1400E+00  0.1400E+00
    -38.471  0.0000E+00  0.0000E+00  0.1400E+00  0.1400E+00
    -38.300  0.0000E+00  0.0000E+00  0.1400E+00  0.1400E+00
    -38.130  0.0000E+00  0.0000E+00  0.1400E+00  0.1400E+00
    -37.960  0.0000E+00  0.0000E+00  0.1400E+00  0.1400E+00
    -37.790  0.0000E+00  0.0000E+00  0.1400E+00  0.1400E+00
    -37.619  0.0000E+00  0.0000E+00  0.1400E+00  0.1400E+00
    -37.449  0.0000E+00  0.0000E+00  0.1400E+00  0.1400E+00
    -37.279  0.0000E+00  0.0000E+00  0.1400E+00  0.1400E+00
    -37.109  0.0000E+00  0.0000E+00  0.1400E+00  0.1400E+00
    -36.938  0.0000E+00  0.0000E+00  0.1400E+00  0.1400E+00
    -36.768  0.0000E+00  0.0000E+00  0.1400E+00  0.1400E+00
    -36.598  0.0000E+00  0.0000E+00  0.1400E+00  0.1400E+00
    -36.428  0.0000E+00  0.0000E+00  0.1400E+00  0.1400E+00
    -36.257  0.0000E+00  0.0000E+00  0.1400E+00  0.1400E+00
    -36.087  0.0000E+00  0.0000E+00  0.1400E+00  0.1400E+00
    -35.917  0.0000E+00  0.0000E+00  0.1400E+00  0.1400E+00
    -35.747  0.0000E+00  0.0000E+00  0.1400E+00  0.1400E+00
    -35.576  0.0000E+00  0.0000E+00  0.1400E+00  0.1400E+00
    -35.406  0.0000E+00  0.0000E+00  0.1400E+00  0.1400E+00
    -35.236  0.0000E+00  0.0000E+00  0.1400E+00  0.1400E+00
    -35.066  0.0000E+00  0.0000E+00  0.1400E+00  0.1400E+00
    -34.896  0.0000E+00  0.0000E+00  0.1400E+00  0.1400E+00
    -34.725  0.0000E+00  0.0000E+00  0.1400E+00  0.1400E+00
    -34.555  0.0000E+00  0.0000E+00  0.1400E+00  0.1400E+00
    -34.385  0.0000E+00  0.0000E+00  0.1400E+00  0.1400E+00
    -34.215  0.0000E+00  0.0000E+00  0.1400E+00  0.1400E+00
    -34.044  0.0000E+00  0.0000E+00  0.1400E+00  0.1400E+00
    -33.874  0.0000E+00  0.0000E+00  0.1400E+00  0.1400E+00
    -33.704  0.0000E+00  0.0000E+00  0.1400E+00  0.1400E+00
    -33.534  0.0000E+00  0.0000E+00  0.1400E+00  0.1400E+00
    -33.363  0.0000E+00  0.0000E+00  0.1400E+00  0.1400E+00
    -33.193  0.0000E+00  0.0000E+00  0.1400E+00  0.1400E+00
    -33.023  0.0000E+00  0.0000E+00  0.1400E+00  0.1400E+00
    -32.853  0.0000E+00  0.0000E+00  0.1400E+00  0.1400E+00
    -32.682  0.0000E+00  0.0000E+00  0.1400E+00  0.1400E+00
    -32.512  0.0000E+00  0.0000E+00  0.1400E+00  0.1400E+00
    -32.342  0.0000E+00  0.0000E+00  0.1400E+00  0.1400E+00
    -32.172  0.0000E+00  0.0000E+00  0.1400E+00  0.1400E+00
    -32.001  0.0000E+00  0.0000E+00  0.1400E+00  0.1400E+00
    -31.831  0.0000E+00  0.0000E+00  0.1400E+00  0.1400E+00
    -31.661  0.0000E+00  0.0000E+00  0.1400E+00  0.1400E+00
    -31.491  0.0000E+00  0.0000E+00  0.1400E+00  0.1400E+00
    -31.320  0.0000E+00  0.0000E+00  0.1400E+00  0.1400E+00
    -31.150  0.0000E+00  0.0000E+00  0.1400E+00  0.1400E+00
    -30.980  0.0000E+00  0.0000E+00  0.1400E+00  0.1400E+00
    -30.810  0.0000E+00  0.0000E+00  0.1400E+00  0.1400E+00
    -30.640  0.0000E+00  0.0000E+00  0.1400E+00  0.1400E+00
    -30.469  0.0000E+00  0.0000E+00  0.1400E+00  0.1400E+00
    -30.299  0.0000E+00  0.0000E+00  0.1400E+00  0.1400E+00
    -30.129  0.0000E+00  0.0000E+00  0.1400E+00  0.1400E+00
    -29.959  0.0000E+00  0.0000E+00  0.1400E+00  0.1400E+00
    -29.788  0.0000E+00  0.0000E+00  0.1400E+00  0.1400E+00
    -29.618  0.0000E+00  0.0000E+00  0.1400E+00  0.1400E+00
    -29.448  0.0000E+00  0.0000E+00  0.1400E+00  0.1400E+00
    -29.278  0.0000E+00  0.0000E+00  0.1400E+00  0.1400E+00
    -29.107  0.0000E+00  0.0000E+00  0.1400E+00  0.1400E+00
    -28.937  0.0000E+00  0.0000E+00  0.1400E+00  0.1400E+00
    -28.767  0.0000E+00  0.0000E+00  0.1400E+00  0.1400E+00
    -28.597  0.0000E+00  0.0000E+00  0.1400E+00  0.1400E+00
    -28.426  0.0000E+00  0.0000E+00  0.1400E+00  0.1400E+00
    -28.256  0.0000E+00  0.0000E+00  0.1400E+00  0.1400E+00
    -28.086  0.0000E+00  0.0000E+00  0.1400E+00  0.1400E+00
    -27.916  0.0000E+00  0.0000E+00  0.1400E+00  0.1400E+00
    -27.745  0.0000E+00  0.0000E+00  0.1400E+00  0.1400E+00
    -27.575  0.0000E+00  0.0000E+00  0.1400E+00  0.1400E+00
    -27.405  0.0000E+00  0.0000E+00  0.1400E+00  0.1400E+00
    -27.235  0.0000E+00  0.0000E+00  0.1400E+00  0.1400E+00
    -27.064  0.0000E+00  0.0000E+00  0.1400E+00  0.1400E+00
    -26.894  0.0000E+00  0.0000E+00  0.1400E+00  0.1400E+00
    -26.724  0.0000E+00  0.0000E+00  0.1400E+00  0.1400E+00
    -26.554  0.0000E+00  0.0000E+00  0.1400E+00  0.1400E+00
    -26.384  0.0000E+00  0.0000E+00  0.1400E+00  0.1400E+00
    -26.213  0.0000E+00  0.0000E+00  0.1400E+00  0.1400E+00
    -26.043  0.0000E+00  0.0000E+00  0.1400E+00  0.1400E+00
    -25.873  0.0000E+00  0.0000E+00  0.1400E+00  0.1400E+00
    -25.703  0.0000E+00  0.0000E+00  0.1400E+00  0.1400E+00
    -25.532  0.0000E+00  0.0000E+00  0.1400E+00  0.1400E+00
    -25.362  0.0000E+00  0.0000E+00  0.1400E+00  0.1400E+00
    -25.192  0.0000E+00  0.0000E+00  0.1400E+00  0.1400E+00
    -25.022  0.0000E+00  0.0000E+00  0.1400E+00  0.1400E+00
    -24.851  0.0000E+00  0.0000E+00  0.1400E+00  0.1400E+00
    -24.681  0.0000E+00  0.0000E+00  0.1400E+00  0.1400E+00
    -24.511  0.0000E+00  0.0000E+00  0.1400E+00  0.1400E+00
    -24.341  0.0000E+00  0.0000E+00  0.1400E+00  0.1400E+00
    -24.170  0.0000E+00  0.0000E+00  0.1400E+00  0.1400E+00
    -24.000  0.0000E+00  0.0000E+00  0.1400E+00  0.1400E+00
    -23.830  0.0000E+00  0.0000E+00  0.1400E+00  0.1400E+00
    -23.660  0.0000E+00  0.0000E+00  0.1400E+00  0.1400E+00
    -23.489  0.0000E+00  0.0000E+00  0.1400E+00  0.1400E+00
    -23.319  0.0000E+00  0.0000E+00  0.1400E+00  0.1400E+00
    -23.149  0.0000E+00  0.0000E+00  0.1400E+00  0.1400E+00
    -22.979  0.0000E+00  0.0000E+00  0.1400E+00  0.1400E+00
    -22.809  0.0000E+00  0.0000E+00  0.1400E+00  0.1400E+00
    -22.638  0.0000E+00  0.0000E+00  0.1400E+00  0.1400E+00
    -22.468  0.0000E+00  0.0000E+00  0.1400E+00  0.1400E+00
    -22.298  0.0000E+00  0.0000E+00  0.1400E+00  0.1400E+00
    -22.128  0.0000E+00  0.0000E+00  0.1400E+00  0.1400E+00
    -21.957  0.0000E+00  0.0000E+00  0.1400E+00  0.1400E+00
    -21.787  0.0000E+00  0.0000E+00  0.1400E+00  0.1400E+00
    -21.617  0.0000E+00  0.0000E+00  0.1400E+00  0.1400E+00
    -21.447  0.0000E+00  0.0000E+00  0.1400E+00  0.1400E+00
    -21.276  0.0000E+00  0.0000E+00  0.1400E+00  0.1400E+00
    -21.106  0.0000E+00  0.0000E+00  0.1400E+00  0.1400E+00
    -20.936  0.0000E+00  0.0000E+00  0.1400E+00  0.1400E+00
    -20.766  0.0000E+00  0.0000E+00  0.1400E+00  0.1400E+00
    -20.595  0.0000E+00  0.0000E+00  0.1400E+00  0.1400E+00
    -20.425  0.0000E+00  0.0000E+00  0.1400E+00  0.1400E+00
    -20.255  0.0000E+00  0.0000E+00  0.1400E+00  0.1400E+00
    -20.085  0.0000E+00  0.0000E+00  0.1400E+00  0.1400E+00
    -19.914  0.0000E+00  0.0000E+00  0.1400E+00  0.1400E+00
    -19.744  0.0000E+00  0.0000E+00  0.1400E+00  0.1400E+00
    -19.574  0.0000E+00  0.0000E+00  0.1400E+00  0.1400E+00
    -19.404  0.0000E+00  0.0000E+00  0.1400E+00  0.1400E+00
    -19.233  0.0000E+00  0.0000E+00  0.1400E+00  0.1400E+00
    -19.063  0.0000E+00  0.0000E+00  0.1400E+00  0.1400E+00
    -18.893  0.0000E+00  0.0000E+00  0.1400E+00  0.1400E+00
    -18.723  0.0000E+00  0.0000E+00  0.1400E+00  0.1400E+00
    -18.553  0.0000E+00  0.0000E+00  0.1400E+00  0.1400E+00
    -18.382  0.0000E+00  0.0000E+00  0.1400E+00  0.1400E+00
    -18.212  0.0000E+00  0.0000E+00  0.1400E+00  0.1400E+00
    -18.042  0.0000E+00  0.0000E+00  0.1400E+00  0.1400E+00
    -17.872  0.0000E+00  0.0000E+00  0.1400E+00  0.1400E+00
    -17.701  0.0000E+00  0.0000E+00  0.1400E+00  0.1400E+00
    -17.531  0.0000E+00  0.0000E+00  0.1400E+00  0.1400E+00
    -17.361  0.0000E+00  0.0000E+00  0.1400E+00  0.1400E+00
    -17.191  0.0000E+00  0.0000E+00  0.1400E+00  0.1400E+00
    -17.020  0.0000E+00  0.0000E+00  0.1400E+00  0.1400E+00
    -16.850  0.0000E+00  0.0000E+00  0.1400E+00  0.1400E+00
    -16.680 -0.8303E-37 -0.3960E-37  0.1400E+00  0.1400E+00
    -16.510 -0.1907E-28 -0.1041E-28  0.1400E+00  0.1400E+00
    -16.339 -0.3168E-21 -0.1919E-21  0.1400E+00  0.1400E+00
    -16.169 -0.3867E-15 -0.2590E-15  0.1400E+00  0.1400E+00
    -15.999 -0.3629E-10 -0.2691E-10  0.1400E+00  0.1400E+00
    -15.829 -0.2533E-06 -0.2051E-06  0.1400E+00  0.1400E+00
    -15.658 -0.1241E-03 -0.1082E-03  0.1400E+00  0.1400E+00
    -15.488 -0.2731E-02 -0.2604E-02  0.1395E+00  0.1395E+00
    -15.318  0.3107E-01  0.2819E-01  0.1448E+00  0.1443E+00
    -15.148  0.6866E-01  0.6978E-01  0.1565E+00  0.1562E+00
    -14.978  0.1922E-02  0.3710E-02  0.1568E+00  0.1568E+00
    -14.807 -0.8933E-03 -0.1051E-02  0.1567E+00  0.1567E+00
    -14.637 -0.7127E-05 -0.1078E-04  0.1567E+00  0.1567E+00
    -14.467 -0.3586E-08 -0.6900E-08  0.1567E+00  0.1567E+00
    -14.297 -0.1305E-12 -0.3175E-12  0.1567E+00  0.1567E+00
    -14.126  0.0000E+00  0.0000E+00  0.1567E+00  0.1567E+00
    -13.956  0.0000E+00  0.0000E+00  0.1567E+00  0.1567E+00
    -13.786  0.0000E+00  0.0000E+00  0.1567E+00  0.1567E+00
    -13.616  0.0000E+00  0.0000E+00  0.1567E+00  0.1567E+00
    -13.445  0.0000E+00  0.0000E+00  0.1567E+00  0.1567E+00
    -13.275  0.0000E+00  0.0000E+00  0.1567E+00  0.1567E+00
    -13.105  0.0000E+00  0.0000E+00  0.1567E+00  0.1567E+00
    -12.935  0.0000E+00  0.0000E+00  0.1567E+00  0.1567E+00
    -12.764  0.0000E+00  0.0000E+00  0.1567E+00  0.1567E+00
    -12.594  0.0000E+00  0.0000E+00  0.1567E+00  0.1567E+00
    -12.424  0.0000E+00  0.0000E+00  0.1567E+00  0.1567E+00
    -12.254  0.0000E+00  0.0000E+00  0.1567E+00  0.1567E+00
    -12.083  0.0000E+00  0.0000E+00  0.1567E+00  0.1567E+00
    -11.913  0.0000E+00  0.0000E+00  0.1567E+00  0.1567E+00
    -11.743  0.0000E+00  0.0000E+00  0.1567E+00  0.1567E+00
    -11.573  0.0000E+00  0.0000E+00  0.1567E+00  0.1567E+00
    -11.402  0.0000E+00  0.0000E+00  0.1567E+00  0.1567E+00
    -11.232  0.0000E+00  0.0000E+00  0.1567E+00  0.1567E+00
    -11.062  0.0000E+00  0.0000E+00  0.1567E+00  0.1567E+00
    -10.892  0.0000E+00  0.0000E+00  0.1567E+00  0.1567E+00
    -10.722  0.0000E+00  0.0000E+00  0.1567E+00  0.1567E+00
    -10.551  0.0000E+00  0.0000E+00  0.1567E+00  0.1567E+00
    -10.381  0.0000E+00  0.0000E+00  0.1567E+00  0.1567E+00
    -10.211  0.0000E+00  0.0000E+00  0.1567E+00  0.1567E+00
    -10.041  0.0000E+00  0.0000E+00  0.1567E+00  0.1567E+00
     -9.870  0.0000E+00  0.0000E+00  0.1567E+00  0.1567E+00
     -9.700  0.0000E+00  0.0000E+00  0.1567E+00  0.1567E+00
     -9.530  0.0000E+00  0.0000E+00  0.1567E+00  0.1567E+00
     -9.360  0.0000E+00  0.0000E+00  0.1567E+00  0.1567E+00
     -9.189  0.0000E+00  0.0000E+00  0.1567E+00  0.1567E+00
     -9.019  0.0000E+00  0.0000E+00  0.1567E+00  0.1567E+00
     -8.849  0.0000E+00  0.0000E+00  0.1567E+00  0.1567E+00
     -8.679 -0.8673E-35 -0.5345E-34  0.1567E+00  0.1567E+00
     -8.508 -0.7308E-27 -0.3770E-26  0.1567E+00  0.1567E+00
     -8.338 -0.4699E-20 -0.2070E-19  0.1567E+00  0.1567E+00
     -8.168 -0.2265E-14 -0.8639E-14  0.1567E+00  0.1567E+00
     -7.998 -0.8870E-10 -0.2916E-09  0.1567E+00  0.1567E+00
     -7.827 -0.2819E-06 -0.7582E-06  0.1567E+00  0.1567E+00
     -7.657 -0.6832E-04 -0.1324E-03  0.1567E+00  0.1566E+00
     -7.487 -0.4808E-03 -0.8088E-04  0.1566E+00  0.1566E+00
     -7.317  0.1010E-01  0.1313E-01  0.1583E+00  0.1589E+00
     -7.147  0.1085E-01  0.7190E-02  0.1601E+00  0.1601E+00
     -6.976  0.4322E-02  0.1215E-02  0.1609E+00  0.1603E+00
     -6.806  0.5396E-02  0.6192E-02  0.1618E+00  0.1614E+00
     -6.636  0.3139E-02  0.3390E-02  0.1623E+00  0.1619E+00
     -6.466  0.8943E-02  0.5291E-02  0.1639E+00  0.1628E+00
     -6.295  0.3142E-02  0.8308E-02  0.1644E+00  0.1642E+00
     -6.125  0.4255E-02  0.9450E-03  0.1651E+00  0.1644E+00
     -5.955  0.1345E-01  0.6243E-02  0.1674E+00  0.1655E+00
     -5.785  0.1299E-01  0.1464E-01  0.1696E+00  0.1680E+00
     -5.614  0.9426E-02  0.1088E-01  0.1712E+00  0.1698E+00
     -5.444  0.1140E-01  0.9129E-02  0.1732E+00  0.1714E+00
     -5.274  0.6327E-02  0.1244E-01  0.1742E+00  0.1735E+00
     -5.104  0.1531E-01  0.3883E-02  0.1768E+00  0.1741E+00
     -4.933  0.1925E-01  0.1485E-01  0.1801E+00  0.1767E+00
     -4.763  0.1524E-01  0.1924E-01  0.1827E+00  0.1799E+00
     -4.593  0.1919E-01  0.1013E-01  0.1860E+00  0.1817E+00
     -4.423  0.2196E-01  0.1832E-01  0.1897E+00  0.1848E+00
     -4.252  0.2730E-01  0.1159E-01  0.1944E+00  0.1868E+00
     -4.082  0.3681E-01  0.2679E-01  0.2006E+00  0.1913E+00
     -3.912  0.5533E-01  0.2501E-01  0.2101E+00  0.1956E+00
     -3.742  0.7611E-01  0.2458E-01  0.2230E+00  0.1998E+00
     -3.571  0.1148E+00  0.2122E-01  0.2425E+00  0.2034E+00
     -3.401  0.1204E+00  0.2750E-01  0.2630E+00  0.2081E+00
     -3.231  0.1508E+00  0.4116E-01  0.2887E+00  0.2151E+00
     -3.061  0.1887E+00  0.5766E-01  0.3208E+00  0.2249E+00
     -2.891  0.1534E+00  0.6465E-01  0.3469E+00  0.2359E+00
     -2.720  0.1438E+00  0.7614E-01  0.3714E+00  0.2489E+00
     -2.550  0.2021E+00  0.6023E-01  0.4058E+00  0.2591E+00
     -2.380  0.2581E+00  0.8935E-01  0.4498E+00  0.2743E+00
     -2.210  0.2379E+00  0.1088E+00  0.4903E+00  0.2928E+00
     -2.039  0.2203E+00  0.1079E+00  0.5278E+00  0.3112E+00
     -1.869  0.2277E+00  0.1081E+00  0.5665E+00  0.3296E+00
     -1.699  0.2203E+00  0.1125E+00  0.6040E+00  0.3488E+00
     -1.529  0.2365E+00  0.1234E+00  0.6443E+00  0.3698E+00
     -1.358  0.2292E+00  0.1572E+00  0.6833E+00  0.3965E+00
     -1.188  0.1979E+00  0.1737E+00  0.7170E+00  0.4261E+00
     -1.018  0.1594E+00  0.1735E+00  0.7441E+00  0.4556E+00
     -0.848  0.1645E+00  0.1724E+00  0.7721E+00  0.4850E+00
     -0.677  0.1874E+00  0.1816E+00  0.8040E+00  0.5159E+00
     -0.507  0.2403E+00  0.2066E+00  0.8449E+00  0.5511E+00
     -0.337  0.2986E+00  0.2175E+00  0.8958E+00  0.5881E+00
     -0.167  0.3120E+00  0.2213E+00  0.9489E+00  0.6258E+00
      0.004  0.2484E+00  0.1990E+00  0.9912E+00  0.6596E+00
      0.174  0.1812E+00  0.1618E+00  0.1022E+01  0.6872E+00
      0.344  0.1469E+00  0.1355E+00  0.1047E+01  0.7102E+00
      0.514  0.1357E+00  0.1160E+00  0.1070E+01  0.7300E+00
      0.684  0.1302E+00  0.9507E-01  0.1092E+01  0.7462E+00
      0.855  0.1281E+00  0.1006E+00  0.1114E+01  0.7633E+00
      1.025  0.9699E-01  0.1139E+00  0.1131E+01  0.7827E+00
      1.195  0.9602E-01  0.1538E+00  0.1147E+01  0.8089E+00
      1.365  0.1145E+00  0.1819E+00  0.1166E+01  0.8398E+00
      1.536  0.1244E+00  0.1870E+00  0.1188E+01  0.8717E+00
      1.706  0.1199E+00  0.2167E+00  0.1208E+01  0.9086E+00
      1.876  0.1298E+00  0.2420E+00  0.1230E+01  0.9498E+00
      2.046  0.1116E+00  0.2408E+00  0.1249E+01  0.9908E+00
      2.217  0.2714E-01  0.2852E+00  0.1254E+01  0.1039E+01
      2.387 -0.2309E-02  0.3101E+00  0.1253E+01  0.1092E+01
      2.557 -0.1840E-03  0.3271E+00  0.1253E+01  0.1148E+01
      2.727 -0.7238E-06  0.2854E+00  0.1253E+01  0.1196E+01
      2.898 -0.2192E-09  0.2076E+00  0.1253E+01  0.1232E+01
      3.068 -0.5332E-14  0.1130E+00  0.1253E+01  0.1251E+01
      3.238  0.0000E+00  0.1616E-01  0.1253E+01  0.1254E+01
      3.408  0.0000E+00 -0.2093E-02  0.1253E+01  0.1253E+01
      3.579  0.0000E+00 -0.1052E-03  0.1253E+01  0.1253E+01
      3.749  0.0000E+00 -0.3514E-06  0.1253E+01  0.1253E+01
      3.919  0.0000E+00 -0.1001E-09  0.1253E+01  0.1253E+01
      4.089  0.0000E+00 -0.2391E-14  0.1253E+01  0.1253E+01
      4.260  0.0000E+00  0.0000E+00  0.1253E+01  0.1253E+01
      4.430  0.0000E+00  0.0000E+00  0.1253E+01  0.1253E+01
      4.600  0.0000E+00  0.0000E+00  0.1253E+01  0.1253E+01
      4.770  0.0000E+00  0.0000E+00  0.1253E+01  0.1253E+01
      4.940  0.0000E+00  0.0000E+00  0.1253E+01  0.1253E+01
      5.111  0.0000E+00  0.0000E+00  0.1253E+01  0.1253E+01
      5.281  0.0000E+00  0.0000E+00  0.1253E+01  0.1253E+01
      5.451  0.0000E+00  0.0000E+00  0.1253E+01  0.1253E+01
