   64   64  300    2
  0.2672958E+02  0.8532700E-09  0.8497000E-09  0.2359500E-08  0.5000000E-15
  1.000000000000000E-004
  CAR 
 ni3al                                   
    574     10    376
 
  0.0000000E+00  0.0000000E+00  0.0000000E+00  0.6250000E-01
      1        -42.757510      -43.299119   1.000000   1.000000
      2        -42.741548      -43.249878   1.000000   1.000000
      3        -42.726629      -43.231996   1.000000   1.000000
      4        -42.720043      -43.214100   1.000000   1.000000
      5        -42.694697      -43.207026   1.000000   1.000000
      6        -42.679938      -43.206764   1.000000   1.000000
      7        -42.657770      -43.182311   1.000000   1.000000
      8        -42.655612      -43.154126   1.000000   1.000000
      9        -42.646182      -43.142268   1.000000   1.000000
     10        -42.259149      -43.135988   1.000000   1.000000
     11        -42.187476      -43.125337   1.000000   1.000000
     12        -42.133811      -43.119106   1.000000   1.000000
     13        -41.924139      -43.111688   1.000000   1.000000
     14        -41.896519      -43.105962   1.000000   1.000000
     15        -41.860037      -43.105005   1.000000   1.000000
     16        -41.847561      -43.090573   1.000000   1.000000
     17        -41.836250      -43.086644   1.000000   1.000000
     18        -41.829861      -43.081469   1.000000   1.000000
     19        -41.808499      -43.067739   1.000000   1.000000
     20        -41.793721      -43.033831   1.000000   1.000000
     21        -41.783382      -43.013112   1.000000   1.000000
     22        -41.756069      -42.958499   1.000000   1.000000
     23        -41.744770      -42.908803   1.000000   1.000000
     24        -41.739018      -42.904861   1.000000   1.000000
     25        -41.735852      -42.882610   1.000000   1.000000
     26        -41.731243      -42.818151   1.000000   1.000000
     27        -41.719054      -42.766236   1.000000   1.000000
     28        -41.704970      -42.718486   1.000000   1.000000
     29        -41.695494      -42.670129   1.000000   1.000000
     30        -41.685400      -42.569361   1.000000   1.000000
     31        -41.683723      -41.597181   1.000000   1.000000
     32        -41.681388      -41.497316   1.000000   1.000000
     33        -41.663402      -41.423629   1.000000   1.000000
     34        -40.473307      -40.373105   1.000000   1.000000
     35        -40.396608      -40.367517   1.000000   1.000000
     36        -40.331317      -40.054136   1.000000   1.000000
     37        -40.304777      -39.946106   1.000000   1.000000
     38        -40.282301      -39.857976   1.000000   1.000000
     39        -40.260381      -39.853436   1.000000   1.000000
     40        -40.242260      -39.729398   1.000000   1.000000
     41        -40.149540      -39.666574   1.000000   1.000000
     42        -40.134841      -39.568179   1.000000   1.000000
     43        -15.318383      -15.312241   1.000000   1.000000
     44        -15.290073      -15.288135   1.000000   1.000000
     45        -15.282831      -15.282531   1.000000   1.000000
     46        -15.254773      -15.241823   1.000000   1.000000
     47        -15.237325      -15.223334   1.000000   1.000000
     48         -7.380080       -7.395135   1.000000   1.000000
     49         -7.114757       -7.031844   1.000000   1.000000
     50         -6.188633       -6.033696   1.000000   1.000000
     51         -5.251247       -5.055127   1.000000   1.000000
     52         -5.194520       -5.032854   1.000000   1.000000
     53         -5.169094       -5.019467   1.000000   1.000000
     54         -5.143338       -5.002313   1.000000   1.000000
     55         -4.903240       -4.624283   1.000000   1.000000
     56         -4.612144       -4.305835   1.000000   1.000000
     57         -4.577583       -4.285008   1.000000   1.000000
     58         -4.532425       -4.243872   1.000000   1.000000
     59         -4.516092       -4.224696   1.000000   1.000000
     60         -4.094193       -3.652062   1.000000   1.000000
     61         -4.084377       -3.645974   1.000000   1.000000
     62         -4.070457       -3.607377   1.000000   1.000000
     63         -4.057612       -3.571285   1.000000   1.000000
     64         -4.035328       -3.499084   1.000000   1.000000
     65         -4.006883       -3.483504   1.000000   1.000000
     66         -3.999406       -3.402125   1.000000   1.000000
     67         -3.972238       -3.392926   1.000000   1.000000
     68         -3.825240       -3.230255   1.000000   1.000000
     69         -3.803565       -2.895933   1.000000   1.000000
     70         -3.695402       -2.866399   1.000000   1.000000
     71         -3.616924       -2.845131   1.000000   1.000000
     72         -3.591273       -2.807671   1.000000   1.000000
     73         -3.549165       -2.784552   1.000000   1.000000
     74         -3.519052       -2.746009   1.000000   1.000000
     75         -3.466107       -2.726588   1.000000   1.000000
     76         -3.424854       -2.703352   1.000000   1.000000
     77         -3.381510       -2.615657   1.000000   1.000000
     78         -3.369144       -2.511449   1.000000   1.000000
     79         -3.350462       -2.497215   1.000000   1.000000
     80         -3.336409       -2.383021   1.000000   1.000000
     81         -3.325350       -2.340147   1.000000   1.000000
     82         -3.315213       -2.323518   1.000000   1.000000
     83         -3.309036       -2.311015   1.000000   1.000000
     84         -3.286886       -2.272522   1.000000   1.000000
     85         -3.258418       -2.248976   1.000000   1.000000
     86         -3.249857       -2.239536   1.000000   1.000000
     87         -3.233233       -2.221145   1.000000   1.000000
     88         -3.220883       -2.175519   1.000000   1.000000
     89         -3.202880       -2.161314   1.000000   1.000000
     90         -3.193253       -2.143367   1.000000   1.000000
     91         -3.184873       -2.110808   1.000000   1.000000
     92         -3.162172       -2.084713   1.000000   1.000000
     93         -3.112461       -2.081326   1.000000   1.000000
     94         -3.099740       -2.037321   1.000000   1.000000
     95         -3.063710       -1.993264   1.000000   1.000000
     96         -3.020882       -1.971043   1.000000   1.000000
     97         -2.977358       -1.913605   1.000000   1.000000
     98         -2.967083       -1.835830   1.000000   1.000000
     99         -2.919495       -1.791257   1.000000   1.000000
    100         -2.907084       -1.775123   1.000000   1.000000
    101         -2.897481       -1.760315   1.000000   1.000000
    102         -2.875427       -1.730200   1.000000   1.000000
    103         -2.863084       -1.704944   1.000000   1.000000
    104         -2.847660       -1.679398   1.000000   1.000000
    105         -2.842489       -1.640271   1.000000   1.000000
    106         -2.811511       -1.603864   1.000000   1.000000
    107         -2.803478       -1.576812   1.000000   1.000000
    108         -2.787042       -1.564806   1.000000   1.000000
    109         -2.779474       -1.541116   1.000000   1.000000
    110         -2.768456       -1.509033   1.000000   1.000000
    111         -2.682631       -1.492502   1.000000   1.000000
    112         -2.674796       -1.474724   1.000000   1.000000
    113         -2.624084       -1.456706   1.000000   1.000000
    114         -2.587196       -1.446504   1.000000   1.000000
    115         -2.550250       -1.423843   1.000000   1.000000
    116         -2.548306       -1.415708   1.000000   1.000000
    117         -2.533844       -1.402655   1.000000   1.000000
    118         -2.516548       -1.371988   1.000000   1.000000
    119         -2.512060       -1.368319   1.000000   1.000000
    120         -2.503164       -1.314733   1.000000   1.000000
    121         -2.490226       -1.309066   1.000000   1.000000
    122         -2.484762       -1.292483   1.000000   1.000000
    123         -2.475004       -1.268560   1.000000   1.000000
    124         -2.465532       -1.250886   1.000000   1.000000
    125         -2.453410       -1.232804   1.000000   1.000000
    126         -2.447903       -1.221756   1.000000   1.000000
    127         -2.432732       -1.186664   1.000000   1.000000
    128         -2.430347       -1.170499   1.000000   1.000000
    129         -2.423191       -1.140644   1.000000   1.000000
    130         -2.407903       -1.134852   1.000000   1.000000
    131         -2.401515       -1.123536   1.000000   1.000000
    132         -2.395651       -1.098681   1.000000   1.000000
    133         -2.380576       -1.070309   1.000000   1.000000
    134         -2.356990       -1.066158   1.000000   1.000000
    135         -2.348272       -1.046924   1.000000   1.000000
    136         -2.340261       -1.040245   1.000000   1.000000
    137         -2.335891       -1.010901   1.000000   1.000000
    138         -2.308821       -1.005877   1.000000   1.000000
    139         -2.302753       -0.982089   1.000000   1.000000
    140         -2.296591       -0.966660   1.000000   1.000000
    141         -2.291526       -0.948443   1.000000   1.000000
    142         -2.274058       -0.938505   1.000000   1.000000
    143         -2.258362       -0.913704   1.000000   1.000000
    144         -2.250108       -0.907608   1.000000   1.000000
    145         -2.231619       -0.884777   1.000000   1.000000
    146         -2.228763       -0.874219   1.000000   1.000000
    147         -2.212246       -0.865629   1.000000   1.000000
    148         -2.207803       -0.860078   1.000000   1.000000
    149         -2.182246       -0.838144   1.000000   1.000000
    150         -2.169798       -0.815108   1.000000   1.000000
    151         -2.162023       -0.800977   1.000000   1.000000
    152         -2.151080       -0.793748   1.000000   1.000000
    153         -2.145385       -0.776197   1.000000   1.000000
    154         -2.128708       -0.769242   1.000000   1.000000
    155         -2.109262       -0.733878   1.000000   1.000000
    156         -2.094566       -0.725653   1.000000   1.000000
    157         -2.074652       -0.711006   1.000000   1.000000
    158         -2.055890       -0.694579   1.000000   1.000000
    159         -2.050151       -0.677284   1.000000   1.000000
    160         -2.033067       -0.654733   1.000000   1.000000
    161         -2.021847       -0.602833   1.000000   1.000000
    162         -2.018971       -0.599594   1.000000   1.000000
    163         -2.007426       -0.588353   1.000000   1.000000
    164         -1.977829       -0.559927   1.000000   1.000000
    165         -1.968701       -0.540750   1.000000   1.000000
    166         -1.960541       -0.528559   1.000000   1.000000
    167         -1.938033       -0.516159   1.000000   1.000000
    168         -1.915561       -0.507220   1.000000   1.000000
    169         -1.910599       -0.499643   1.000000   1.000000
    170         -1.902433       -0.479053   1.000000   1.000000
    171         -1.882493       -0.454027   1.000000   1.000000
    172         -1.875459       -0.440842   1.000000   1.000000
    173         -1.854200       -0.411198   1.000000   1.000000
    174         -1.844145       -0.397749   1.000000   1.000000
    175         -1.821155       -0.370305   1.000000   1.000000
    176         -1.811730       -0.338141   1.000000   1.000000
    177         -1.796239       -0.326719   1.000000   1.000000
    178         -1.788101       -0.315042   1.000000   1.000000
    179         -1.764035       -0.306538   1.000000   1.000000
    180         -1.751645       -0.297094   1.000000   1.000000
    181         -1.745062       -0.273692   1.000000   1.000000
    182         -1.739058       -0.259929   1.000000   1.000000
    183         -1.727935       -0.256354   1.000000   1.000000
    184         -1.711838       -0.238790   1.000000   1.000000
    185         -1.685564       -0.228246   1.000000   1.000000
    186         -1.672312       -0.209669   1.000000   1.000000
    187         -1.649910       -0.198598   1.000000   1.000000
    188         -1.632520       -0.182721   1.000000   1.000000
    189         -1.604500       -0.173839   1.000000   1.000000
    190         -1.596628       -0.138826   1.000000   1.000000
    191         -1.585462       -0.136585   1.000000   1.000000
    192         -1.577726       -0.105490   1.000000   1.000000
    193         -1.564086       -0.075525   1.000000   1.000000
    194         -1.548616       -0.048246   1.000000   1.000000
    195         -1.518431       -0.030851   1.000000   1.000000
    196         -1.502767       -0.011211   1.000000   1.000000
    197         -1.494485        0.003401   1.000000   1.000000
    198         -1.484711        0.048602   1.000000   1.000000
    199         -1.446328        0.062734   1.000000   1.000000
    200         -1.426018        0.082078   1.000000   1.000000
    201         -1.407853        0.099328   1.000000   1.000000
    202         -1.397376        0.112241   1.000000   1.000000
    203         -1.360803        0.129106   1.000000   1.000000
    204         -1.351492        0.181034   1.000000   1.000000
    205         -1.332208        0.201784   1.000000   1.000000
    206         -1.320047        0.224781   1.000000   1.000000
    207         -1.313740        0.240085   1.000000   1.000000
    208         -1.292721        0.276967   1.000000   1.000000
    209         -1.274635        0.289549   1.000000   1.000000
    210         -1.252011        0.313301   1.000000   1.000000
    211         -1.247664        0.331655   1.000000   1.000000
    212         -1.214318        0.335411   1.000000   1.000000
    213         -1.208892        0.361703   1.000000   1.000000
    214         -1.201172        0.389287   1.000000   1.000000
    215         -1.185820        0.408190   1.000000   1.000000
    216         -1.133020        0.415285   1.000000   1.000000
    217         -1.109917        0.425104   1.000000   1.000000
    218         -1.103191        0.447846   1.000000   1.000000
    219         -1.089351        0.491242   1.000000   1.000003
    220         -1.082962        0.510177   1.000000   1.000007
    221         -1.060948        0.517056   1.000000   1.000009
    222         -1.050462        0.580799   1.000000   1.000115
    223         -1.030464        0.598398   1.000000   1.000217
    224         -1.012989        0.651548   1.000000   1.001209
    225         -1.009749        0.668494   1.000000   1.001968
    226         -0.983201        0.715040   1.000000   1.006400
    227         -0.966897        0.740455   1.000000   1.010974
    228         -0.954329        0.767216   1.000000   1.017721
    229         -0.940682        0.779251   1.000000   1.021277
    230         -0.919971        0.803640   1.000000   1.028694
    231         -0.884536        0.821659   1.000000   1.033246
    232         -0.867675        0.847396   1.000000   1.035196
    233         -0.846536        0.860943   1.000000   1.032349
    234         -0.821877        0.959734   1.000000   0.832763
    235         -0.813162        0.980985   1.000000   0.737294
    236         -0.778855        1.047355   1.000000   0.375891
    237         -0.778511        1.060380   1.000000   0.306866
    238         -0.750796        1.073623   1.000000   0.241417
    239         -0.733549        1.102357   1.000000   0.121706
    240         -0.725499        1.127906   1.000000   0.045306
    241         -0.704527        1.155545   1.000000  -0.005796
    242         -0.697895        1.157973   1.000000  -0.008880
    243         -0.678842        1.173633   1.000000  -0.024092
    244         -0.660795        1.208226   1.000000  -0.035456
    245         -0.656052        1.218251   1.000000  -0.034897
    246         -0.644133        1.241872   1.000000  -0.030009
    247         -0.619061        1.248686   1.000000  -0.028066
    248         -0.612812        1.268425   1.000000  -0.022040
    249         -0.601815        1.272305   1.000000  -0.020858
    250         -0.597420        1.275345   1.000000  -0.019945
    251         -0.576277        1.280988   1.000000  -0.018287
    252         -0.549190        1.321067   1.000000  -0.008709
    253         -0.540482        1.329632   1.000000  -0.007240
    254         -0.530551        1.341136   1.000000  -0.005573
    255         -0.512577        1.355665   1.000000  -0.003919
    256         -0.494831        1.367486   1.000000  -0.002892
    257         -0.492717        1.394838   1.000000  -0.001352
    258         -0.474888        1.413910   1.000000  -0.000760
    259         -0.457940        1.422726   1.000000  -0.000575
    260         -0.449738        1.434670   1.000000  -0.000389
    261         -0.438569        1.447596   1.000000  -0.000251
    262         -0.423989        1.469266   1.000000  -0.000116
    263         -0.417035        1.482071   1.000000  -0.000072
    264         -0.407207        1.509637   1.000000  -0.000024
    265         -0.394873        1.538263   1.000000  -0.000007
    266         -0.382541        1.545577   1.000000  -0.000005
    267         -0.378607        1.555882   1.000000  -0.000003
    268         -0.360243        1.567242   1.000000  -0.000002
    269         -0.358260        1.583609   1.000000  -0.000001
    270         -0.350823        1.593620   1.000000  -0.000001
    271         -0.342223        1.615348   1.000000  -0.000000
    272         -0.336497        1.629373   1.000000  -0.000000
    273         -0.326942        1.654159   1.000000  -0.000000
    274         -0.314319        1.657731   1.000000  -0.000000
    275         -0.306781        1.672918   1.000000  -0.000000
    276         -0.302946        1.693786   1.000000  -0.000000
    277         -0.275409        1.706860   1.000000  -0.000000
    278         -0.268769        1.716587   1.000000  -0.000000
    279         -0.264073        1.734390   1.000000  -0.000000
    280         -0.253769        1.746061   1.000000  -0.000000
    281         -0.244370        1.762158   1.000000  -0.000000
    282         -0.236856        1.791719   1.000000  -0.000000
    283         -0.222938        1.802040   1.000000  -0.000000
    284         -0.220721        1.819819   1.000000  -0.000000
    285         -0.215881        1.839748   1.000000  -0.000000
    286         -0.200930        1.850266   1.000000  -0.000000
    287         -0.186082        1.869930   1.000000  -0.000000
    288         -0.177404        1.873774   1.000000  -0.000000
    289         -0.165141        1.893131   1.000000  -0.000000
    290         -0.151275        1.926447   1.000000  -0.000000
    291         -0.138518        1.933344   1.000000  -0.000000
    292         -0.117327        1.941418   1.000000  -0.000000
    293         -0.106517        1.986927   1.000000  -0.000000
    294         -0.100659        1.998191   1.000000  -0.000000
    295         -0.099076        2.015906   1.000000  -0.000000
    296         -0.085223        2.019553   1.000000  -0.000000
    297         -0.066546        2.046518   1.000000  -0.000000
    298         -0.062077        2.059760   1.000000  -0.000000
    299         -0.052875        2.066360   1.000000  -0.000000
    300         -0.039097        2.092391   1.000000  -0.000000
    301         -0.013987        2.099285   1.000000  -0.000000
    302         -0.005766        2.103620   1.000000  -0.000000
    303          0.013123        2.112058   1.000000  -0.000000
    304          0.054721        2.120376   1.000000  -0.000000
    305          0.070542        2.143428   1.000000  -0.000000
    306          0.115174        2.149313   1.000000  -0.000000
    307          0.122574        2.159998   1.000000  -0.000000
    308          0.163736        2.164004   1.000000  -0.000000
    309          0.180923        2.193076   1.000000  -0.000000
    310          0.195630        2.205766   1.000000  -0.000000
    311          0.217550        2.214750   1.000000  -0.000000
    312          0.238879        2.219030   1.000000  -0.000000
    313          0.250498        2.223874   1.000000  -0.000000
    314          0.261968        2.228637   1.000000  -0.000000
    315          0.312011        2.240811   1.000000  -0.000000
    316          0.328240        2.247214   1.000000  -0.000000
    317          0.349294        2.265831   1.000000  -0.000000
    318          0.359278        2.286622   1.000000  -0.000000
    319          0.403840        2.291979   1.000000  -0.000000
    320          0.430425        2.295104   1.000000  -0.000000
    321          0.467489        2.301860   1.000001  -0.000000
    322          0.496188        2.313012   1.000004  -0.000000
    323          0.505990        2.314478   1.000006  -0.000000
    324          0.556832        2.320028   1.000047  -0.000000
    325          0.592766        2.338025   1.000178  -0.000000
    326          0.602016        2.343251   1.000246  -0.000000
    327          0.611905        2.356908   1.000345  -0.000000
    328          0.643122        2.361153   1.000939  -0.000000
    329          0.679712        2.375572   1.002673  -0.000000
    330          0.706767        2.382932   1.005283  -0.000000
    331          0.727635        2.391511   1.008442  -0.000000
    332          0.735759        2.405652   1.009992  -0.000000
    333          0.751947        2.425162   1.013640  -0.000000
    334          0.754482        2.433136   1.014277  -0.000000
    335          0.802617        2.437450   1.028397  -0.000000
    336          0.818326        2.451974   1.032532  -0.000000
    337          0.865288        2.460813   1.030646  -0.000000
    338          0.907933        2.469384   0.985034  -0.000000
    339          0.940003        2.482638   0.904767  -0.000000
    340          0.967875        2.497168   0.798226  -0.000000
    341          1.028388        2.504727   0.481383  -0.000000
    342          1.077656        2.517094   0.222646  -0.000000
    343          1.085196        2.520298   0.189183  -0.000000
    344          1.170158        2.534898  -0.021372  -0.000000
    345          1.183636        2.535957  -0.030075  -0.000000
    346          1.235186        2.547214  -0.031748  -0.000000
    347          1.264418        2.563628  -0.023272  -0.000000
    348          1.285090        2.583661  -0.017118  -0.000000
    349          1.338011        2.584429  -0.005993  -0.000000
    350          1.361601        2.597653  -0.003371  -0.000000
    351          1.388268        2.621994  -0.001635  -0.000000
    352          1.423112        2.648934  -0.000568  -0.000000
    353          1.461506        2.656404  -0.000154  -0.000000
    354          1.476855        2.678388  -0.000087  -0.000000
    355          1.485357        2.679310  -0.000063  -0.000000
    356          1.504673        2.693322  -0.000030  -0.000000
    357          1.556720        2.715859  -0.000003  -0.000000
    358          1.582638        2.726205  -0.000001  -0.000000
    359          1.594297        2.741436  -0.000001  -0.000000
    360          1.608209        2.759700  -0.000000  -0.000000
    361          1.635146        2.769271  -0.000000  -0.000000
    362          1.663287        2.788785  -0.000000  -0.000000
    363          1.694757        2.814107  -0.000000  -0.000000
    364          1.714498        2.822102  -0.000000  -0.000000
    365          1.735791        2.839474  -0.000000  -0.000000
    366          1.764758        2.846841  -0.000000  -0.000000
    367          1.776470        2.866859  -0.000000  -0.000000
    368          1.826514        2.881005  -0.000000  -0.000000
    369          1.841477        2.907578  -0.000000  -0.000000
    370          1.908931        2.915341  -0.000000  -0.000000
    371          1.918354        2.925845  -0.000000  -0.000000
    372          1.941780        2.971469  -0.000000  -0.000000
    373          1.983069        3.011808  -0.000000  -0.000000
    374          1.998800        3.050214  -0.000000  -0.000000
    375          2.021792        3.054397  -0.000000  -0.000000
    376          2.104730        3.075066  -0.000000  -0.000000
 
  0.2500000E+00  0.6721729E-20  0.0000000E+00  0.1250000E+00
      1        -42.757502      -43.299122   1.000000   1.000000
      2        -42.741550      -43.249877   1.000000   1.000000
      3        -42.726633      -43.231986   1.000000   1.000000
      4        -42.720039      -43.214113   1.000000   1.000000
      5        -42.694699      -43.207026   1.000000   1.000000
      6        -42.679946      -43.206759   1.000000   1.000000
      7        -42.657787      -43.182293   1.000000   1.000000
      8        -42.655630      -43.154149   1.000000   1.000000
      9        -42.646181      -43.142270   1.000000   1.000000
     10        -42.259160      -43.136018   1.000000   1.000000
     11        -42.187470      -43.125343   1.000000   1.000000
     12        -42.133821      -43.119106   1.000000   1.000000
     13        -41.924141      -43.111691   1.000000   1.000000
     14        -41.896519      -43.105955   1.000000   1.000000
     15        -41.860032      -43.105014   1.000000   1.000000
     16        -41.847565      -43.090590   1.000000   1.000000
     17        -41.836277      -43.086621   1.000000   1.000000
     18        -41.829850      -43.081477   1.000000   1.000000
     19        -41.808516      -43.067740   1.000000   1.000000
     20        -41.793714      -43.033831   1.000000   1.000000
     21        -41.783362      -43.013148   1.000000   1.000000
     22        -41.756071      -42.958508   1.000000   1.000000
     23        -41.744778      -42.908807   1.000000   1.000000
     24        -41.739025      -42.904863   1.000000   1.000000
     25        -41.735846      -42.882609   1.000000   1.000000
     26        -41.731242      -42.818159   1.000000   1.000000
     27        -41.719061      -42.766245   1.000000   1.000000
     28        -41.704983      -42.718488   1.000000   1.000000
     29        -41.695507      -42.670131   1.000000   1.000000
     30        -41.685414      -42.569367   1.000000   1.000000
     31        -41.683728      -41.597186   1.000000   1.000000
     32        -41.681404      -41.497318   1.000000   1.000000
     33        -41.663408      -41.423633   1.000000   1.000000
     34        -40.473312      -40.373103   1.000000   1.000000
     35        -40.396613      -40.367519   1.000000   1.000000
     36        -40.331281      -40.054141   1.000000   1.000000
     37        -40.304784      -39.946123   1.000000   1.000000
     38        -40.282323      -39.857973   1.000000   1.000000
     39        -40.260352      -39.853434   1.000000   1.000000
     40        -40.242317      -39.729408   1.000000   1.000000
     41        -40.149540      -39.666580   1.000000   1.000000
     42        -40.134853      -39.568184   1.000000   1.000000
     43        -15.318384      -15.312241   1.000000   1.000000
     44        -15.290074      -15.288135   1.000000   1.000000
     45        -15.282832      -15.282532   1.000000   1.000000
     46        -15.254773      -15.241823   1.000000   1.000000
     47        -15.237325      -15.223333   1.000000   1.000000
     48         -7.336542       -7.364370   1.000000   1.000000
     49         -7.012653       -6.916847   1.000000   1.000000
     50         -6.093763       -5.941834   1.000000   1.000000
     51         -5.977030       -5.853250   1.000000   1.000000
     52         -5.195023       -4.984661   1.000000   1.000000
     53         -5.082085       -4.912066   1.000000   1.000000
     54         -5.039317       -4.887409   1.000000   1.000000
     55         -4.805819       -4.528999   1.000000   1.000000
     56         -4.489095       -4.181708   1.000000   1.000000
     57         -4.458725       -4.147418   1.000000   1.000000
     58         -4.414921       -4.124351   1.000000   1.000000
     59         -4.340361       -4.089465   1.000000   1.000000
     60         -4.322354       -4.066859   1.000000   1.000000
     61         -4.221504       -3.829939   1.000000   1.000000
     62         -4.077469       -3.574161   1.000000   1.000000
     63         -4.000732       -3.400956   1.000000   1.000000
     64         -3.931601       -3.330363   1.000000   1.000000
     65         -3.927251       -3.294946   1.000000   1.000000
     66         -3.836380       -3.281415   1.000000   1.000000
     67         -3.806940       -3.240335   1.000000   1.000000
     68         -3.765867       -3.209570   1.000000   1.000000
     69         -3.741485       -3.165839   1.000000   1.000000
     70         -3.714603       -3.099849   1.000000   1.000000
     71         -3.672789       -2.855384   1.000000   1.000000
     72         -3.617915       -2.829655   1.000000   1.000000
     73         -3.602598       -2.774919   1.000000   1.000000
     74         -3.521372       -2.736115   1.000000   1.000000
     75         -3.493618       -2.622887   1.000000   1.000000
     76         -3.480818       -2.588193   1.000000   1.000000
     77         -3.473505       -2.558187   1.000000   1.000000
     78         -3.441121       -2.542432   1.000000   1.000000
     79         -3.431808       -2.500311   1.000000   1.000000
     80         -3.413369       -2.484026   1.000000   1.000000
     81         -3.372933       -2.438461   1.000000   1.000000
     82         -3.340844       -2.408625   1.000000   1.000000
     83         -3.283664       -2.385979   1.000000   1.000000
     84         -3.257897       -2.331191   1.000000   1.000000
     85         -3.241916       -2.311420   1.000000   1.000000
     86         -3.211576       -2.254839   1.000000   1.000000
     87         -3.191938       -2.224530   1.000000   1.000000