srun: ROUTE: split_hostlist: hl=e06r2n13 tree_width 0
 running on    4 total cores
 distrk:  each k-point on    1 cores,    4 groups
 distr:  one band on    1 cores,    1 groups
 HIP runtime initialized ...    4 DCUs will be used
 Created    4 streams on each DCU
 vasp.6.3.2 27Jun22 (build Mar 15 2023 15:45:48) complex                        
  
 POSCAR found type information on POSCAR FeCrPb
 POSCAR found :  3 types and      64 ions
 Reading from existing POTCAR
 -----------------------------------------------------------------------------
|                                                                             |
|           W    W    AA    RRRRR   N    N  II  N    N   GGGG   !!!           |
|           W    W   A  A   R    R  NN   N  II  NN   N  G    G  !!!           |
|           W    W  A    A  R    R  N N  N  II  N N  N  G       !!!           |
|           W WW W  AAAAAA  RRRRR   N  N N  II  N  N N  G  GGG   !            |
|           WW  WW  A    A  R   R   N   NN  II  N   NN  G    G                |
|           W    W  A    A  R    R  N    N  II  N    N   GGGG   !!!           |
|                                                                             |
|     You use a magnetic or noncollinear calculation, but did not specify     |
|     the initial magnetic moment with the MAGMOM tag. Note that a            |
|     default of 1 will be used for all atoms. This ferromagnetic setup       |
|     may break the symmetry of the crystal, in particular it may rule        |
|     out finding an antiferromagnetic solution. Thence, we recommend         |
|     setting the initial magnetic moment manually or verifying carefully     |
|     that this magnetic setup is desired.                                    |
|                                                                             |
 -----------------------------------------------------------------------------

 scaLAPACK will be used selectively (only on CPU)
 Reading from existing POTCAR
 LDA part: xc-table for Pade appr. of Perdew
 POSCAR found type information on POSCAR FeCrPb
 POSCAR found :  3 types and      64 ions
 Optimize memory usage for KPAR
 POSCAR, INCAR and KPOINTS ok, starting setup
 FFT: planning ... GRIDC
 FFT: planning ... GRID_SOFT
 FFT: planning ... GRID
 WAVECAR not read
 WARNING: chargedensity file is incomplete
 WARNING: random wavefunctions but no delay for mixing, default for NELMDL
 entering main loop
       N       E                     dE             d eps       ncg     rms          rms(c)
DAV:   1     0.572280565444E+04    0.57228E+04   -0.24515E+05 15968   0.145E+03
DAV:   2    -0.539888544526E+02   -0.57768E+04   -0.55772E+04 15040   0.426E+02
DAV:   3    -0.526528347493E+03   -0.47254E+03   -0.41939E+03 15440   0.165E+02
DAV:   4    -0.587606247124E+03   -0.61078E+02   -0.57321E+02 26424   0.456E+01
DAV:   5    -0.591122400226E+03   -0.35162E+01   -0.33139E+01 24912   0.108E+01    0.941E+01
DAV:   6    -0.774308862727E+03   -0.18319E+03   -0.42274E+02 27440   0.949E+01    0.157E+02
DAV:   7    -0.696725386014E+03    0.77583E+02   -0.47385E+02 28120   0.116E+02    0.147E+02
DAV:   8    -0.557748858921E+03    0.13898E+03   -0.21583E+02 27632   0.797E+01    0.896E+01
DAV:   9    -0.540368140452E+03    0.17381E+02   -0.76551E+01 25608   0.373E+01    0.688E+01
DAV:  10    -0.528559955377E+03    0.11808E+02   -0.49528E+01 24720   0.277E+01    0.673E+01
DAV:  11    -0.505654879269E+03    0.22905E+02   -0.86821E+01 22440   0.360E+01    0.491E+01
DAV:  12    -0.501368344664E+03    0.42865E+01   -0.37814E+01 22512   0.226E+01    0.386E+01
DAV:  13    -0.501188736109E+03    0.17961E+00   -0.73037E+00 20440   0.110E+01    0.349E+01
DAV:  14    -0.501125627050E+03    0.63109E-01   -0.11434E+00 24064   0.300E+00    0.361E+01
DAV:  15    -0.502477701722E+03   -0.13521E+01   -0.10016E+00 26264   0.315E+00    0.355E+01
DAV:  16    -0.505002676536E+03   -0.25250E+01   -0.44272E+00 26312   0.794E+00    0.309E+01
DAV:  17    -0.507608742242E+03   -0.26061E+01   -0.55974E+00 24624   0.816E+00    0.240E+01
DAV:  18    -0.508748348608E+03   -0.11396E+01   -0.19385E+00 24976   0.475E+00    0.227E+01
DAV:  19    -0.509283194113E+03   -0.53485E+00   -0.77222E-01 24752   0.286E+00    0.209E+01
DAV:  20    -0.510076188580E+03   -0.79299E+00   -0.16209E+00 26224   0.492E+00    0.177E+01
DAV:  21    -0.510128948577E+03   -0.52760E-01   -0.11922E+00 25152   0.463E+00    0.149E+01
DAV:  22    -0.510178053563E+03   -0.49105E-01   -0.60244E-01 25136   0.298E+00    0.136E+01
DAV:  23    -0.510246504902E+03   -0.68451E-01   -0.26040E-01 25016   0.181E+00    0.130E+01
DAV:  24    -0.510387394388E+03   -0.14089E+00   -0.24459E-01 25752   0.181E+00    0.117E+01
DAV:  25    -0.510785415872E+03   -0.39802E+00   -0.97566E-01 26872   0.384E+00    0.983E+00
DAV:  26    -0.511084340637E+03   -0.29892E+00   -0.10262E+00 25104   0.297E+00    0.805E+00
DAV:  27    -0.511236857691E+03   -0.15252E+00   -0.45062E-01 25392   0.188E+00    0.723E+00
DAV:  28    -0.511320402790E+03   -0.83545E-01   -0.21021E-01 23880   0.169E+00    0.673E+00
DAV:  29    -0.511466655789E+03   -0.14625E+00   -0.19337E-01 26360   0.116E+00    0.635E+00
DAV:  30    -0.511564532706E+03   -0.97877E-01   -0.10883E-01 25656   0.812E-01    0.605E+00
DAV:  31    -0.511616540786E+03   -0.52008E-01   -0.39128E-02 25432   0.550E-01    0.582E+00
DAV:  32    -0.511750360495E+03   -0.13382E+00   -0.13341E-01 26440   0.897E-01    0.557E+00
DAV:  33    -0.511988394446E+03   -0.23803E+00   -0.43620E-01 25368   0.144E+00    0.476E+00
DAV:  34    -0.512120026340E+03   -0.13163E+00   -0.56198E-01 25400   0.166E+00    0.340E+00
DAV:  35    -0.512094234680E+03    0.25792E-01   -0.80964E-02 23520   0.123E+00    0.298E+00
DAV:  36    -0.512115816764E+03   -0.21582E-01   -0.59856E-02 26064   0.813E-01    0.264E+00
DAV:  37    -0.512137512018E+03   -0.21695E-01   -0.15754E-01 25080   0.947E-01    0.230E+00
DAV:  38    -0.512144074398E+03   -0.65624E-02   -0.46613E-02 24704   0.720E-01    0.187E+00
DAV:  39    -0.512142802910E+03    0.12715E-02   -0.24670E-02 26176   0.517E-01    0.136E+00
DAV:  40    -0.512143237522E+03   -0.43461E-03   -0.36384E-02 25360   0.494E-01    0.107E+00
DAV:  41    -0.512145010306E+03   -0.17728E-02   -0.83797E-03 23680   0.299E-01    0.948E-01
DAV:  42    -0.512148228342E+03   -0.32180E-02   -0.11599E-02 25264   0.281E-01    0.696E-01
DAV:  43    -0.512148583947E+03   -0.35561E-03   -0.69253E-03 25528   0.321E-01    0.497E-01
DAV:  44    -0.512148816982E+03   -0.23304E-03   -0.26277E-03 23712   0.155E-01    0.435E-01
DAV:  45    -0.512149457146E+03   -0.64016E-03   -0.17191E-03 25664   0.132E-01    0.318E-01
DAV:  46    -0.512149560278E+03   -0.10313E-03   -0.18938E-03 26512   0.125E-01    0.276E-01
DAV:  47    -0.512149948643E+03   -0.38837E-03   -0.16729E-03 25416   0.117E-01    0.182E-01
DAV:  48    -0.512150032693E+03   -0.84050E-04   -0.58455E-04 24720   0.774E-02    0.165E-01
DAV:  49    -0.512150118333E+03   -0.85640E-04   -0.37770E-04 26120   0.578E-02    0.152E-01
DAV:  50    -0.512150236666E+03   -0.11833E-03   -0.17566E-04 22584   0.369E-02    0.124E-01
DAV:  51    -0.512150263904E+03   -0.27238E-04   -0.88554E-05 18280   0.422E-02    0.850E-02
DAV:  52    -0.512150279107E+03   -0.15203E-04   -0.20831E-04 24792   0.372E-02    0.665E-02
DAV:  53    -0.512150297006E+03   -0.17899E-04   -0.32842E-05 13792   0.188E-02    0.589E-02
DAV:  54    -0.512150310529E+03   -0.13523E-04   -0.25212E-05 12128   0.178E-02    0.450E-02
DAV:  55    -0.512150328231E+03   -0.17702E-04   -0.86146E-05 20128   0.287E-02    0.465E-02
DAV:  56    -0.512150335900E+03   -0.76685E-05   -0.33625E-05 12600   0.160E-02
   1 F= -.51215034E+03 E0= -.51215649E+03  d E =-.512150E+03  mag=   104.7413
 curvature:   0.00 expect dE= 0.000E+00 dE for cont linesearch  0.000E+00
 trial: gam= 0.00000 g(F)=  0.306E+01 g(S)=  0.000E+00 ort = 0.000E+00 (trialstep = 0.100E+01)
 search vector abs. value=  0.306E+01
 bond charge predicted
       N       E                     dE             d eps       ncg     rms          rms(c)
DAV:   1    -0.502475849430E+03    0.96745E+01   -0.16128E+03 20720   0.802E+01    0.228E+01
DAV:   2    -0.518810483756E+03   -0.16335E+02   -0.10985E+02 22992   0.276E+01    0.330E+01
DAV:   3    -0.523134834863E+03   -0.43244E+01   -0.29638E+01 27232   0.400E+01    0.385E+01
DAV:   4    -0.513458189070E+03    0.96766E+01   -0.15528E+01 27888   0.265E+01    0.119E+01
DAV:   5    -0.513281765361E+03    0.17642E+00   -0.19263E+00 22272   0.592E+00    0.695E+00
DAV:   6    -0.513338251198E+03   -0.56486E-01   -0.56290E-01 25112   0.339E+00    0.599E+00
DAV:   7    -0.513432287086E+03   -0.94036E-01   -0.21148E-01 25912   0.240E+00    0.536E+00
DAV:   8    -0.513537252960E+03   -0.10497E+00   -0.12532E-01 22424   0.165E+00    0.415E+00
DAV:   9    -0.513524448959E+03    0.12804E-01   -0.20297E-01 23168   0.251E+00    0.217E+00
DAV:  10    -0.513533727581E+03   -0.92786E-02   -0.46354E-02 26008   0.901E-01    0.221E+00
DAV:  11    -0.513527879115E+03    0.58485E-02   -0.12357E-02 19280   0.501E-01    0.184E+00
DAV:  12    -0.513514969367E+03    0.12910E-01   -0.25756E-02 27720   0.816E-01    0.115E+00
DAV:  13    -0.513513773347E+03    0.11960E-02   -0.11365E-02 24832   0.411E-01    0.109E+00
DAV:  14    -0.513513748231E+03    0.25116E-04   -0.38861E-03 24152   0.259E-01    0.107E+00
DAV:  15    -0.513511187693E+03    0.25605E-02   -0.53037E-03 25376   0.321E-01    0.659E-01
DAV:  16    -0.513510149838E+03    0.10379E-02   -0.46854E-03 27344   0.330E-01    0.357E-01
DAV:  17    -0.513510586182E+03   -0.43634E-03   -0.12741E-03 23528   0.126E-01    0.375E-01
DAV:  18    -0.513510595918E+03   -0.97352E-05   -0.46982E-04 23256   0.959E-02    0.277E-01
DAV:  19    -0.513510433275E+03    0.16264E-03   -0.62670E-04 26424   0.133E-01    0.147E-01
DAV:  20    -0.513510431452E+03    0.18234E-05   -0.21842E-04 23384   0.503E-02    0.127E-01
DAV:  21    -0.513510395473E+03    0.35979E-04   -0.10774E-04 19552   0.495E-02    0.899E-02
DAV:  22    -0.513510392114E+03    0.33595E-05   -0.10057E-04 14184   0.461E-02    0.698E-02
DAV:  23    -0.513510394531E+03   -0.24165E-05   -0.83178E-05 19912   0.273E-02
   2 F= -.51351039E+03 E0= -.51351655E+03  d E =-.136006E+01  mag=   104.5399
 trial-energy change:   -1.360059  1 .order   -1.568740   -3.058529   -0.078952
 step:   1.0473(harm=  1.0265)  dis= 0.30529  next Energy=  -513.512241 (dE=-0.136E+01)
 bond charge predicted
       N       E                     dE             d eps       ncg     rms          rms(c)
DAV:   1    -0.513489292146E+03    0.21100E-01   -0.25254E+00 19440   0.329E+00    0.631E-01
DAV:   2    -0.513511501193E+03   -0.22209E-01   -0.21195E-01 16712   0.841E-01    0.548E-01
DAV:   3    -0.513525492075E+03   -0.13991E-01   -0.54321E-02 25192   0.116E+00    0.152E+00
DAV:   4    -0.513510871069E+03    0.14621E-01   -0.34097E-02 27360   0.866E-01    0.314E-01
DAV:   5    -0.513511663273E+03   -0.79220E-03   -0.11382E-03 25304   0.144E-01    0.273E-01
DAV:   6    -0.513512181348E+03   -0.51808E-03   -0.11793E-03 23848   0.203E-01    0.228E-01
DAV:   7    -0.513512176509E+03    0.48389E-05   -0.43281E-04 22864   0.103E-01    0.115E-01
DAV:   8    -0.513512135334E+03    0.41176E-04   -0.12982E-04 16312   0.529E-02    0.722E-02
DAV:   9    -0.513512143070E+03   -0.77361E-05   -0.68357E-05 16944   0.229E-02
   3 F= -.51351214E+03 E0= -.51351832E+03  d E =-.136181E+01  mag=   104.5309
 curvature:  -0.20 expect dE=-0.208E-01 dE for cont linesearch -0.285E-06
 trial: gam= 0.03540 g(F)=  0.106E+00 g(S)=  0.000E+00 ort =-0.211E-02 (trialstep = 0.101E+01)
 search vector abs. value=  0.110E+00
 bond charge predicted
       N       E                     dE             d eps       ncg     rms          rms(c)
DAV:   1    -0.513296499776E+03    0.21564E+00   -0.33250E+01 16440   0.118E+01    0.253E+00
DAV:   2    -0.513607951611E+03   -0.31145E+00   -0.26411E+00 19368   0.389E+00    0.324E+00
DAV:   3    -0.513663661402E+03   -0.55710E-01   -0.66405E-01 24096   0.421E+00    0.420E+00
DAV:   4    -0.513578787544E+03    0.84874E-01   -0.21971E-01 25520   0.226E+00    0.145E+00
DAV:   5    -0.513587835736E+03   -0.90482E-02   -0.17398E-02 24856   0.733E-01    0.125E+00
DAV:   6    -0.513599190551E+03   -0.11355E-01   -0.21689E-02 23904   0.811E-01    0.722E-01
DAV:   7    -0.513599363357E+03   -0.17281E-03   -0.58413E-03 23712   0.377E-01    0.423E-01
DAV:   8    -0.513599408330E+03   -0.44973E-04   -0.21159E-03 25552   0.207E-01    0.401E-01
DAV:   9    -0.513599140848E+03    0.26748E-03   -0.11993E-03 21256   0.150E-01    0.306E-01
DAV:  10    -0.513599075437E+03    0.65410E-04   -0.14611E-03 26864   0.141E-01    0.237E-01
DAV:  11    -0.513599001825E+03    0.73612E-04   -0.59472E-04 21424   0.764E-02    0.187E-01
DAV:  12    -0.513598913924E+03    0.87901E-04   -0.16385E-04 23096   0.582E-02    0.133E-01
DAV:  13    -0.513598937473E+03   -0.23549E-04   -0.32873E-04 24232   0.613E-02    0.953E-02
DAV:  14    -0.513598979990E+03   -0.42517E-04   -0.10242E-04 18192   0.321E-02    0.916E-02
DAV:  15    -0.513598967944E+03    0.12046E-04   -0.19342E-05  9624   0.266E-02    0.648E-02
DAV:  16    -0.513598964251E+03    0.36927E-05   -0.38062E-05 10848   0.316E-02
   4 F= -.51359896E+03 E0= -.51360507E+03  d E =-.868212E-01  mag=   104.5176
 trial-energy change:   -0.086821  1 .order   -0.086564   -0.107101   -0.066028
 step:   2.4945(harm=  2.6322)  dis= 0.10998  next Energy=  -513.648349 (dE=-0.136E+00)
 bond charge predicted
       N       E                     dE             d eps       ncg     rms          rms(c)
DAV:   1    -0.512992703719E+03    0.60626E+00   -0.72691E+01 16456   0.175E+01    0.381E+00
DAV:   2    -0.513682221347E+03   -0.68952E+00   -0.57893E+00 19672   0.588E+00    0.495E+00
DAV:   3    -0.513810703339E+03   -0.12848E+00   -0.14455E+00 24584   0.637E+00    0.636E+00
DAV:   4    -0.513608272404E+03    0.20243E+00   -0.52249E-01 25392   0.352E+00    0.217E+00
DAV:   5    -0.513627399364E+03   -0.19127E-01   -0.39754E-02 24488   0.109E+00    0.186E+00
DAV:   6    -0.513650623077E+03   -0.23224E-01   -0.45947E-02 23624   0.119E+00    0.108E+00
DAV:   7    -0.513653534868E+03   -0.29118E-02   -0.12217E-02 23608   0.517E-01    0.636E-01
DAV:   8    -0.513653677444E+03   -0.14258E-03   -0.52123E-03 25840   0.332E-01    0.591E-01
DAV:   9    -0.513652981556E+03    0.69589E-03   -0.23846E-03 20432   0.227E-01    0.463E-01
DAV:  10    -0.513652729242E+03    0.25231E-03   -0.31208E-03 27096   0.216E-01    0.380E-01
DAV:  11    -0.513652540562E+03    0.18868E-03   -0.15254E-03 21448   0.119E-01    0.300E-01
DAV:  12    -0.513652331724E+03    0.20884E-03   -0.37278E-04 25136   0.922E-02    0.217E-01
DAV:  13    -0.513652346591E+03   -0.14868E-04   -0.71275E-04 25232   0.928E-02    0.136E-01
DAV:  14    -0.513652461403E+03   -0.11481E-03   -0.29628E-04 22352   0.532E-02    0.137E-01
DAV:  15    -0.513652440915E+03    0.20488E-04   -0.58594E-05 16944   0.388E-02    0.103E-01
DAV:  16    -0.513652423434E+03    0.17481E-04   -0.69912E-05 13856   0.473E-02    0.591E-02
DAV:  17    -0.513652439799E+03   -0.16365E-04   -0.63291E-05 17416   0.233E-02    0.542E-02
DAV:  18    -0.513652446704E+03   -0.69050E-05   -0.27368E-05 11416   0.171E-02
   5 F= -.51365245E+03 E0= -.51365824E+03  d E =-.140304E+00  mag=   104.4360
 curvature:  -1.35 expect dE=-0.466E-01 dE for cont linesearch -0.497E-03
 trial: gam= 0.29392 g(F)=  0.344E-01 g(S)=  0.000E+00 ort = 0.635E-02 (trialstep = 0.131E+01)
 search vector abs. value=  0.477E-01
 bond charge predicted
       N       E                     dE             d eps       ncg     rms          rms(c)
DAV:   1    -0.513477198978E+03    0.17524E+00   -0.25797E+01 17400   0.100E+01    0.200E+00
DAV:   2    -0.513681674809E+03   -0.20448E+00   -0.18801E+00 16504   0.278E+00    0.194E+00
DAV:   3    -0.513780252521E+03   -0.98578E-01   -0.43587E-01 24864   0.337E+00    0.417E+00
DAV:   4    -0.513678133537E+03    0.10212E+00   -0.25550E-01 26544   0.244E+00    0.104E+00
DAV:   5    -0.513688958061E+03   -0.10825E-01   -0.12997E-02 22648   0.484E-01    0.756E-01
DAV:   6    -0.513693563384E+03   -0.46053E-02   -0.54964E-03 23392   0.326E-01    0.633E-01
DAV:   7    -0.513692013489E+03    0.15499E-02   -0.67745E-03 23752   0.480E-01    0.290E-01
DAV:   8    -0.513691968132E+03    0.45357E-04   -0.74693E-04 24600   0.134E-01    0.246E-01
DAV:   9    -0.513691902759E+03    0.65373E-04   -0.25525E-04 23232   0.767E-02    0.232E-01
DAV:  10    -0.513691625045E+03    0.27771E-03   -0.60569E-04 24208   0.105E-01    0.134E-01
DAV:  11    -0.513691596760E+03    0.28284E-04   -0.35942E-04 23552   0.608E-02    0.117E-01
DAV:  12    -0.513691594330E+03    0.24303E-05   -0.72098E-05 17552   0.320E-02
   6 F= -.51369159E+03 E0= -.51369775E+03  d E =-.391476E-01  mag=   104.4358
 ZBRENT: can't locate minimum, use default step
 trial-energy change:   -0.039148  1 .order   -0.039412   -0.047441   -0.031384
 step:   5.2259(harm=  3.8601)  dis= 0.17241  next Energy=  -513.735530 (dE=-0.831E-01)
 bond charge predicted
       N       E                     dE             d eps       ncg     rms          rms(c)
DAV:   1    -0.512115087910E+03    0.15765E+01   -0.25250E+02 17544   0.312E+01    0.656E+00
DAV:   2    -0.513674305585E+03   -0.15592E+01   -0.13579E+01 17896   0.866E+00    0.679E+00
DAV:   3    -0.514598823427E+03   -0.92452E+00   -0.39260E+00 26624   0.109E+01    0.129E+01
DAV:   4    -0.513599712624E+03    0.99911E+00   -0.22785E+00 27048   0.780E+00    0.327E+00
DAV:   5    -0.513656603176E+03   -0.56891E-01   -0.11860E-01 20584   0.136E+00    0.245E+00
DAV:   6    -0.513729059355E+03   -0.72456E-01   -0.82217E-02 27352   0.143E+00    0.259E+00
DAV:   7    -0.513714513581E+03    0.14546E-01   -0.81803E-02 25696   0.175E+00    0.133E+00
DAV:   8    -0.513711861970E+03    0.26516E-02   -0.22295E-02 24416   0.777E-01    0.776E-01
DAV:   9    -0.513711963017E+03   -0.10105E-03   -0.47553E-03 22456   0.278E-01    0.762E-01
DAV:  10    -0.513710375433E+03    0.15876E-02   -0.19711E-03 22768   0.201E-01    0.590E-01
DAV:  11    -0.513708791477E+03    0.15840E-02   -0.41757E-03 25768   0.262E-01    0.423E-01
DAV:  12    -0.513708419473E+03    0.37200E-03   -0.16474E-03 22872   0.125E-01    0.374E-01
DAV:  13    -0.513708079464E+03    0.34001E-03   -0.86741E-04 24256   0.133E-01    0.251E-01
DAV:  14    -0.513708242401E+03   -0.16294E-03   -0.62527E-04 24064   0.874E-02    0.160E-01
DAV:  15    -0.513708418080E+03   -0.17568E-03   -0.27146E-04 23784   0.665E-02    0.165E-01
DAV:  16    -0.513708337738E+03    0.80343E-04   -0.21186E-04 21288   0.787E-02    0.944E-02
DAV:  17    -0.513708337753E+03   -0.15301E-07   -0.85637E-05 16184   0.429E-02
   7 F= -.51370834E+03 E0= -.51371517E+03  d E =-.558910E-01  mag=   104.3711
 curvature:  -1.81 expect dE=-0.546E-01 dE for cont linesearch -0.915E-02
 ZBRENT: interpolating
 opt :   3.6868  next Energy=  -513.720290 (dE=-0.678E-01)
 bond charge predicted
       N       E                     dE             d eps       ncg     rms          rms(c)
DAV:   1    -0.513420585976E+03    0.28775E+00   -0.35925E+01 17392   0.118E+01    0.236E+00
DAV:   2    -0.513690897359E+03   -0.27031E+00   -0.25947E+00 15952   0.297E+00    0.151E+00
DAV:   3    -0.513705933260E+03   -0.15036E-01   -0.65626E-02 26248   0.676E-01    0.125E+00
DAV:   4    -0.513773376682E+03   -0.67443E-01   -0.17264E-01 28208   0.198E+00    0.321E+00
DAV:   5    -0.513714083225E+03    0.59293E-01   -0.15892E-01 27872   0.181E+00    0.973E-01
DAV:   6    -0.513720143604E+03   -0.60604E-02   -0.11186E-02 27696   0.543E-01    0.635E-01
DAV:   7    -0.513720665791E+03   -0.52219E-03   -0.50549E-03 24624   0.392E-01    0.330E-01
DAV:   8    -0.513720513232E+03    0.15256E-03   -0.12147E-03 22512   0.155E-01    0.271E-01
DAV:   9    -0.513720311276E+03    0.20196E-03   -0.26390E-04 23216   0.579E-02    0.235E-01
DAV:  10    -0.513719946027E+03    0.36525E-03   -0.59475E-04 24936   0.896E-02    0.183E-01
DAV:  11    -0.513719734582E+03    0.21144E-03   -0.59830E-04 22824   0.816E-02    0.109E-01
DAV:  12    -0.513719749753E+03   -0.15171E-04   -0.14467E-04 21728   0.405E-02    0.835E-02
DAV:  13    -0.513719781711E+03   -0.31959E-04   -0.45143E-05 14384   0.292E-02    0.645E-02
DAV:  14    -0.513719795187E+03   -0.13476E-04   -0.44643E-05 14360   0.220E-02    0.484E-02
DAV:  15    -0.513719793006E+03    0.21814E-05   -0.12056E-05  8696   0.198E-02
   8 F= -.51371979E+03 E0= -.51372638E+03  d E =-.673463E-01  mag=   104.4076
 curvature:  -2.36 expect dE=-0.280E-01 dE for cont linesearch -0.246E-05
 trial: gam= 0.40653 g(F)=  0.119E-01 g(S)=  0.000E+00 ort = 0.223E-03 (trialstep = 0.178E+01)
 search vector abs. value=  0.199E-01
 bond charge predicted
       N       E                     dE             d eps       ncg     rms          rms(c)
DAV:   1    -0.513527508467E+03    0.19229E+00   -0.19282E+01 17400   0.103E+01    0.218E+00
DAV:   2    -0.513707545413E+03   -0.18004E+00   -0.17025E+00 16024   0.254E+00    0.146E+00
DAV:   3    -0.513764569611E+03   -0.57024E-01   -0.16012E-01 26864   0.194E+00    0.289E+00
DAV:   4    -0.513722644849E+03    0.41925E-01   -0.17806E-01 28216   0.199E+00    0.143E+00
DAV:   5    -0.513726996888E+03   -0.43520E-02   -0.17196E-02 27512   0.605E-01    0.102E+00
DAV:   6    -0.513733791249E+03   -0.67944E-02   -0.13712E-02 25808   0.703E-01    0.631E-01
DAV:   7    -0.513733275664E+03    0.51558E-03   -0.57575E-03 23136   0.367E-01    0.289E-01
DAV:   8    -0.513733253447E+03    0.22217E-04   -0.88967E-04 20032   0.913E-02    0.250E-01
DAV:   9    -0.513733129365E+03    0.12408E-03   -0.29281E-04 22632   0.574E-02    0.211E-01
DAV:  10    -0.513732900222E+03    0.22914E-03   -0.54367E-04 23560   0.775E-02    0.139E-01
DAV:  11    -0.513732876718E+03    0.23504E-04   -0.17912E-04 21560   0.481E-02    0.114E-01
DAV:  12    -0.513732887107E+03   -0.10390E-04   -0.45560E-05 14248   0.291E-02    0.895E-02
DAV:  13    -0.513732948445E+03   -0.61338E-04   -0.18262E-04 22648   0.393E-02    0.666E-02
DAV:  14    -0.513732948503E+03   -0.57560E-07   -0.33221E-05 11912   0.260E-02
   9 F= -.51373295E+03 E0= -.51373958E+03  d E =-.131555E-01  mag=   104.3851
 trial-energy change:   -0.013155  1 .order   -0.013126   -0.021313   -0.004939
 step:   2.3202(harm=  2.3202)  dis= 0.03273  next Energy=  -513.733664 (dE=-0.139E-01)
 bond charge predicted
       N       E                     dE             d eps       ncg     rms          rms(c)
DAV:   1    -0.513715785855E+03    0.17163E-01   -0.17573E+00 17440   0.308E+00    0.665E-01
DAV:   2    -0.513731350875E+03   -0.15565E-01   -0.14657E-01 15976   0.763E-01    0.463E-01
DAV:   3    -0.513742151071E+03   -0.10800E-01   -0.30927E-02 26720   0.867E-01    0.128E+00
DAV:   4    -0.513732298008E+03    0.98531E-02   -0.28785E-02 28120   0.789E-01    0.402E-01
DAV:   5    -0.513733076093E+03   -0.77808E-03   -0.13356E-03 27104   0.169E-01    0.309E-01
DAV:   6    -0.513733803024E+03   -0.72693E-03   -0.15108E-03 24640   0.225E-01    0.190E-01
DAV:   7    -0.513733739351E+03    0.63672E-04   -0.49819E-04 22392   0.108E-01    0.919E-02
DAV:   8    -0.513733745192E+03   -0.58405E-05   -0.76792E-05 18032   0.278E-02
  10 F= -.51373375E+03 E0= -.51374041E+03  d E =-.139522E-01  mag=   104.3807
 curvature:  -1.93 expect dE=-0.344E-02 dE for cont linesearch -0.372E-04
 ZBRENT: extrapolating
 opt :   2.4750  next Energy=  -513.733793 (dE=-0.140E-01)
 bond charge predicted
       N       E                     dE             d eps       ncg     rms          rms(c)
DAV:   1    -0.513732261103E+03    0.14782E-02   -0.14593E-01 17512   0.892E-01    0.198E-01
DAV:   2    -0.513733556289E+03   -0.12952E-02   -0.12180E-02 16080   0.228E-01    0.178E-01
DAV:   3    -0.513734374404E+03   -0.81812E-03   -0.30226E-03 25904   0.265E-01    0.380E-01
DAV:   4    -0.513733576637E+03    0.79777E-03   -0.25221E-03 23064   0.243E-01    0.147E-01
DAV:   5    -0.513733636410E+03   -0.59773E-04   -0.14487E-04 15752   0.739E-02    0.116E-01
DAV:   6    -0.513733709260E+03   -0.72850E-04   -0.11594E-04 20992   0.478E-02    0.774E-02
DAV:   7    -0.513733719053E+03   -0.97924E-05   -0.29981E-05 11592   0.243E-02
  11 F= -.51373372E+03 E0= -.51374040E+03  d E =-.139260E-01  mag=   104.3774
 curvature:  -2.49 expect dE=-0.491E-02 dE for cont linesearch -0.659E-05
 trial: gam= 0.15310 g(F)=  0.197E-02 g(S)=  0.000E+00 ort =-0.230E-03 (trialstep = 0.192E+01)
 search vector abs. value=  0.237E-02
 bond charge predicted
       N       E                     dE             d eps       ncg     rms          rms(c)
DAV:   1    -0.513706461675E+03    0.27248E-01   -0.25823E+00 17120   0.404E+00    0.876E-01
DAV:   2    -0.513732178747E+03   -0.25717E-01   -0.24100E-01 15784   0.982E-01    0.600E-01
DAV:   3    -0.513736915527E+03   -0.47368E-02   -0.14496E-02 26064   0.517E-01    0.861E-01
DAV:   4    -0.513736607076E+03    0.30845E-03   -0.23438E-02 26488   0.730E-01    0.744E-01
DAV:   5    -0.513735824475E+03    0.78260E-03   -0.10521E-02 27640   0.535E-01    0.454E-01
DAV:   6    -0.513736510667E+03   -0.68619E-03   -0.24868E-03 26608   0.297E-01    0.198E-01
DAV:   7    -0.513736621661E+03   -0.11099E-03   -0.78506E-04 22720   0.124E-01    0.119E-01
DAV:   8    -0.513736611121E+03    0.10540E-04   -0.13193E-04 18320   0.459E-02    0.102E-01
DAV:   9    -0.513736591931E+03    0.19190E-04   -0.37533E-05 12520   0.243E-02    0.844E-02
DAV:  10    -0.513736574908E+03    0.17023E-04   -0.12968E-04 21120   0.296E-02    0.563E-02
DAV:  11    -0.513736572784E+03    0.21243E-05   -0.44522E-05 12240   0.252E-02
  12 F= -.51373657E+03 E0= -.51374320E+03  d E =-.285373E-02  mag=   104.3729
 trial-energy change:   -0.002854  1 .order   -0.002986   -0.003717   -0.002255
 step:   4.8857(harm=  4.8857)  dis= 0.01840  next Energy=  -513.738446 (dE=-0.473E-02)
 bond charge predicted
       N       E                     dE             d eps       ncg     rms          rms(c)
DAV:   1    -0.513665978728E+03    0.70596E-01   -0.61528E+00 17136   0.623E+00    0.136E+00
DAV:   2    -0.513729450384E+03   -0.63472E-01   -0.57896E-01 15784   0.160E+00    0.113E+00
DAV:   3    -0.513784199976E+03   -0.54750E-01   -0.18161E-01 26176   0.210E+00    0.300E+00
DAV:   4    -0.513731167776E+03    0.53032E-01   -0.14635E-01 27248   0.183E+00    0.797E-01
DAV:   5    -0.513736089074E+03   -0.49213E-02   -0.94792E-03 26592   0.548E-01    0.679E-01
DAV:   6    -0.513737567220E+03   -0.14781E-02   -0.41697E-03 24560   0.404E-01    0.350E-01
DAV:   7    -0.513738183617E+03   -0.61640E-03   -0.16802E-03 23280   0.175E-01    0.207E-01
DAV:   8    -0.513738139209E+03    0.44407E-04   -0.43345E-04 24104   0.970E-02    0.164E-01
DAV:   9    -0.513738105088E+03    0.34122E-04   -0.16612E-04 18984   0.436E-02    0.133E-01
DAV:  10    -0.513738051571E+03    0.53517E-04   -0.23078E-04 24088   0.583E-02    0.959E-02
DAV:  11    -0.513738038986E+03    0.12585E-04   -0.93281E-05 18120   0.331E-02    0.767E-02
DAV:  12    -0.513738037541E+03    0.14456E-05   -0.38373E-05 11768   0.297E-02
  13 F= -.51373804E+03 E0= -.51374460E+03  d E =-.431849E-02  mag=   104.3675
 curvature:  -2.99 expect dE=-0.170E-02 dE for cont linesearch -0.107E-05
 trial: gam= 0.22627 g(F)=  0.568E-03 g(S)=  0.000E+00 ort = 0.291E-04 (trialstep = 0.251E+01)
 search vector abs. value=  0.702E-03
 bond charge predicted
       N       E                     dE             d eps       ncg     rms          rms(c)
DAV:   1    -0.513723796396E+03    0.14243E-01   -0.12685E+00 17176   0.297E+00    0.619E-01
DAV:   2    -0.513736985987E+03   -0.13190E-01   -0.12286E-01 15768   0.742E-01    0.464E-01
DAV:   3    -0.513749383603E+03   -0.12398E-01   -0.38664E-02 26512   0.950E-01    0.140E+00
DAV:   4    -0.513737402782E+03    0.11981E-01   -0.31760E-02 28032   0.822E-01    0.340E-01
DAV:   5    -0.513738618172E+03   -0.12154E-02   -0.12249E-03 25760   0.155E-01    0.269E-01
DAV:   6    -0.513739031169E+03   -0.41300E-03   -0.11948E-03 25672   0.218E-01    0.208E-01
DAV:   7    -0.513738914221E+03    0.11695E-03   -0.62280E-04 24064   0.138E-01    0.829E-02
DAV:   8    -0.513738927644E+03   -0.13423E-04   -0.10595E-04 18592   0.346E-02    0.803E-02
DAV:   9    -0.513738920012E+03    0.76323E-05   -0.23708E-05 11120   0.246E-02
  14 F= -.51373892E+03 E0= -.51374548E+03  d E =-.882471E-03  mag=   104.3688
 trial-energy change:   -0.000882  1 .order   -0.001020   -0.001445   -0.000596
 step:   4.2777(harm=  4.2777)  dis= 0.00783  next Energy=  -513.739267 (dE=-0.123E-02)
 bond charge predicted
       N       E                     dE             d eps       ncg     rms          rms(c)
DAV:   1    -0.513731465266E+03    0.74624E-02   -0.62551E-01 17208   0.209E+00    0.434E-01
DAV:   2    -0.513738064626E+03   -0.65994E-02   -0.60533E-02 15776   0.527E-01    0.371E-01
DAV:   3    -0.513743614658E+03   -0.55500E-02   -0.20355E-02 25320   0.705E-01    0.963E-01
DAV:   4    -0.513738082008E+03    0.55327E-02   -0.14334E-02 27784   0.552E-01    0.243E-01
DAV:   5    -0.513738681864E+03   -0.59986E-03   -0.57536E-04 25800   0.109E-01    0.204E-01
DAV:   6    -0.513738939981E+03   -0.25812E-03   -0.65627E-04 25760   0.159E-01    0.174E-01
DAV:   7    -0.513738852375E+03    0.87606E-04   -0.43798E-04 24256   0.113E-01    0.735E-02
DAV:   8    -0.513738862941E+03   -0.10566E-04   -0.64269E-05 17232   0.254E-02    0.712E-02
DAV:   9    -0.513738855517E+03    0.74248E-05   -0.15656E-05  9896   0.224E-02
  15 F= -.51373886E+03 E0= -.51374539E+03  d E =-.817976E-03  mag=   104.3698
 curvature:  -2.61 expect dE=-0.655E-03 dE for cont linesearch -0.227E-04
 ZBRENT: interpolating
 opt :   3.8407  next Energy=  -513.738873 (dE=-0.835E-03)
 bond charge predicted
       N       E                     dE             d eps       ncg     rms          rms(c)
DAV:   1    -0.513738449336E+03    0.41361E-03   -0.38011E-02 17104   0.510E-01    0.113E-01
DAV:   2    -0.513739244826E+03   -0.79549E-03   -0.46391E-03 24712   0.212E-01    0.259E-01
DAV:   3    -0.513738884102E+03    0.36072E-03   -0.17930E-03 24152   0.211E-01    0.113E-01
DAV:   4    -0.513738889712E+03   -0.56096E-05   -0.12654E-04 17440   0.537E-02    0.595E-02
DAV:   5    -0.513738923313E+03   -0.33601E-04   -0.36140E-05  9920   0.308E-02    0.496E-02
DAV:   6    -0.513738933676E+03   -0.10364E-04   -0.29944E-05 12664   0.344E-02    0.360E-02
DAV:   7    -0.513738931918E+03    0.17579E-05   -0.12188E-05  8400   0.214E-02
  16 F= -.51373893E+03 E0= -.51374548E+03  d E =-.894378E-03  mag=   104.3689
 curvature:  -1.97 expect dE=-0.456E-03 dE for cont linesearch -0.253E-04
 ZBRENT: bisectioning
 opt :   3.1773  next Energy=  -513.739004 (dE=-0.966E-03)
 bond charge predicted
       N       E                     dE             d eps       ncg     rms          rms(c)
DAV:   1    -0.513737907258E+03    0.10264E-02   -0.88344E-02 17160   0.786E-01    0.160E-01
DAV:   2    -0.513738813393E+03   -0.90614E-03   -0.85626E-03 15816   0.194E-01    0.114E-01
DAV:   3    -0.513739242307E+03   -0.42891E-03   -0.12009E-03 23920   0.167E-01    0.255E-01
DAV:   4    -0.513738869956E+03    0.37235E-03   -0.11631E-03 17856   0.164E-01    0.101E-01
DAV:   5    -0.513738957456E+03   -0.87500E-04   -0.88994E-05 18736   0.430E-02    0.815E-02
DAV:   6    -0.513738963057E+03   -0.56007E-05   -0.92763E-05 17432   0.643E-02
  17 F= -.51373896E+03 E0= -.51374551E+03  d E =-.925516E-03  mag=   104.3685
 curvature:  -5.57 expect dE=-0.930E-03 dE for cont linesearch -0.556E-05
 trial: gam= 0.21824 g(F)=  0.167E-03 g(S)=  0.000E+00 ort = 0.265E-04 (trialstep = 0.265E+01)
 search vector abs. value=  0.212E-03
 bond charge predicted
       N       E                     dE             d eps       ncg     rms          rms(c)
DAV:   1    -0.513734877505E+03    0.40800E-02   -0.39033E-01 16312   0.155E+00    0.346E-01
DAV:   2    -0.513738838609E+03   -0.39611E-02   -0.33681E-02 16864   0.437E-01    0.358E-01
DAV:   3    -0.513740832397E+03   -0.19938E-02   -0.10999E-02 24336   0.535E-01    0.633E-01
DAV:   4    -0.513738758397E+03    0.20740E-02   -0.58153E-03 25720   0.362E-01    0.189E-01
DAV:   5    -0.513739165634E+03   -0.40724E-03   -0.38508E-04 24896   0.960E-02    0.149E-01
DAV:   6    -0.513739276300E+03   -0.11067E-03   -0.43943E-04 25072   0.132E-01    0.122E-01
DAV:   7    -0.513739219252E+03    0.57047E-04   -0.16724E-04 20208   0.698E-02    0.466E-02
DAV:   8    -0.513739220622E+03   -0.13697E-05   -0.25189E-05 11416   0.210E-02
  18 F= -.51373922E+03 E0= -.51374579E+03  d E =-.257565E-03  mag=   104.3683
 trial-energy change:   -0.000258  1 .order   -0.000317   -0.000457   -0.000176
 step:   4.3063(harm=  4.3063)  dis= 0.00391  next Energy=  -513.739335 (dE=-0.372E-03)
 reached required accuracy - stopping structural energy minimisation
 PROFILE, used timers:     231
