<?xml version="1.0" encoding="ISO-8859-1"?>
<modeling>
 <generator>
  <i name="program" type="string">vasp </i>
  <i name="version" type="string">6.3.2  </i>
  <i name="subversion" type="string">27Jun22 (build Mar 15 2023 15:45:48) complex                          parallel </i>
  <i name="platform" type="string">LinuxIFC </i>
  <i name="date" type="string">2025 02 09 </i>
  <i name="time" type="string">23:27:23 </i>
 </generator>
 <incar>
  <i type="string" name="SYSTEM">ni3al</i>
  <i type="int" name="ISTART">     1</i>
  <i type="string" name="PREC">Accurate</i>
  <i type="string" name="ALGO">Normal</i>
  <i type="int" name="ISPIN">     2</i>
  <i type="int" name="IMIX">     4</i>
  <i name="AMIX">      0.05000000</i>
  <i name="BMIX">      0.00010000</i>
  <i name="AMIN">      0.01000000</i>
  <i type="int" name="ICHARG">     1</i>
  <i type="int" name="NELM">   150</i>
  <i type="int" name="IBRION">     2</i>
  <i name="EDIFF">      0.00001000</i>
  <i name="EDIFFG">     -0.02000000</i>
  <i type="int" name="NSW">   300</i>
  <i type="int" name="ISIF">     2</i>
  <i name="ENCUT">    450.00000000</i>
  <i type="string" name="LREAL">Auto</i>
  <i type="int" name="ISMEAR">     1</i>
  <i name="SIGMA">      0.15000000</i>
  <i type="int" name="LMAXMIX">     4</i>
  <i type="logical" name="LWAVE"> F  </i>
  <i type="logical" name="LCHARG"> F  </i>
  <i type="logical" name="LDIPOL"> T  </i>
  <i type="int" name="IDIPOL">     3</i>
 </incar>
 <primitive_cell>
  <structure name="primitive_cell" >
   <crystal>
    <varray name="basis" >
     <v>       8.53269958       0.00000000       0.00000000 </v>
     <v>      -0.00051933       8.49699972       0.00000000 </v>
     <v>       0.00000000       0.00000000      23.59499931 </v>
    </varray>
    <i name="volume">   1710.69280467 </i>
    <varray name="rec_basis" >
     <v>       0.11719620       0.00000716       0.00000000 </v>
     <v>       0.00000000       0.11768860       0.00000000 </v>
     <v>       0.00000000       0.00000000       0.04238186 </v>
    </varray>
   </crystal>
   <varray name="positions" >
    <v>       0.00086000       0.99993000       0.24271000 </v>
    <v>       0.16589957       0.16471079       0.30323101 </v>
    <v>       0.50544035       0.16970429       0.30604542 </v>
    <v>       0.66822000       0.00107000       0.24272000 </v>
    <v>       0.83417243       0.16743432       0.30394797 </v>
    <v>       0.00044000       0.33497000       0.24240000 </v>
    <v>       0.16685214       0.50206384       0.30400934 </v>
    <v>       0.33469000       0.33305000       0.24267000 </v>
    <v>       0.49980869       0.49742802       0.30372178 </v>
    <v>       0.83502648       0.50420770       0.30217990 </v>
    <v>       0.16863847       0.83457814       0.30501553 </v>
    <v>       0.33342000       0.66555000       0.24261000 </v>
    <v>       0.83648674       0.83311478       0.30363590 </v>
    <v>       0.00064000       0.00119000       0.00199000 </v>
    <v>       0.99637837       0.00459563       0.36160297 </v>
    <v>       0.16843000       0.16962000       0.06269000 </v>
    <v>       0.33460000       0.00297000       0.00254000 </v>
    <v>       0.33708720       0.00653675       0.36195768 </v>
    <v>       0.50463000       0.16850000       0.06120000 </v>
    <v>       0.83272000       0.16670000       0.06193000 </v>
    <v>       0.00004000       0.33467000       0.00213000 </v>
    <v>       0.99857738       0.33186373       0.36006574 </v>
    <v>       0.16757000       0.49895000       0.06268000 </v>
    <v>       0.50099000       0.49896000       0.06206000 </v>
    <v>       0.83393000       0.50234000       0.06235000 </v>
    <v>       0.00121000       0.66785000       0.00188000 </v>
    <v>       0.99786624       0.66609651       0.36044313 </v>
    <v>       0.16792000       0.83462000       0.06228000 </v>
    <v>       0.33437000       0.66664000       0.00225000 </v>
    <v>       0.34005745       0.66315868       0.36175193 </v>
    <v>       0.50152000       0.83563000       0.06217000 </v>
    <v>       0.66753000       0.66705000       0.00175000 </v>
    <v>       0.66339310       0.66459610       0.36034303 </v>
    <v>       0.83293000       0.83584000       0.06235000 </v>
    <v>       0.00121000       0.00098000       0.12225000 </v>
    <v>       0.16700000       0.16811000       0.18239000 </v>
    <v>       0.33470000       0.00227000       0.12192000 </v>
    <v>       0.50174000       0.16716000       0.18263000 </v>
    <v>       0.83421000       0.16639000       0.18283000 </v>
    <v>       0.16964000       0.49868000       0.18209000 </v>
    <v>       0.50219000       0.50081000       0.18317000 </v>
    <v>       0.66741000       0.33395000       0.12233000 </v>
    <v>       0.83134000       0.50253000       0.18283000 </v>
    <v>       0.00132000       0.66795000       0.12253000 </v>
    <v>       0.16898000       0.83509000       0.18243000 </v>
    <v>       0.33446000       0.66703000       0.12223000 </v>
    <v>       0.49971000       0.83538000       0.18278000 </v>
    <v>       0.66698000       0.66840000       0.12259000 </v>
    <v>       0.83488000       0.83403000       0.18294000 </v>
    <v>       0.33558000       0.99863000       0.24353000 </v>
    <v>       0.66801000       0.33262000       0.24229000 </v>
    <v>       0.00448000       0.66739000       0.24217000 </v>
    <v>       0.49661475       0.83343711       0.30116455 </v>
    <v>       0.66521000       0.67351000       0.24327000 </v>
    <v>       0.66620000       0.99680000       0.00000000 </v>
    <v>       0.66737432       0.98761411       0.36400103 </v>
    <v>       0.33213000       0.33386000       0.00135000 </v>
    <v>       0.32276710       0.33243764       0.36515367 </v>
    <v>       0.67040000       0.33673000       0.00321000 </v>
    <v>       0.67730008       0.34335154       0.36693267 </v>
    <v>       0.66728000       0.99998000       0.12246000 </v>
    <v>       0.99806000       0.33495000       0.12235000 </v>
    <v>       0.33675000       0.33238000       0.12261000 </v>
    <v>       0.50544000       0.16970000       0.42000000 </v>
   </varray>
  </structure>
  <varray name="primitive_index" >
   <v type="int" >        1 </v>
   <v type="int" >        2 </v>
   <v type="int" >        3 </v>
   <v type="int" >        4 </v>
   <v type="int" >        5 </v>
   <v type="int" >        6 </v>
   <v type="int" >        7 </v>
   <v type="int" >        8 </v>
   <v type="int" >        9 </v>
   <v type="int" >       10 </v>
   <v type="int" >       11 </v>
   <v type="int" >       12 </v>
   <v type="int" >       13 </v>
   <v type="int" >       14 </v>
   <v type="int" >       15 </v>
   <v type="int" >       16 </v>
   <v type="int" >       17 </v>
   <v type="int" >       18 </v>
   <v type="int" >       19 </v>
   <v type="int" >       20 </v>
   <v type="int" >       21 </v>
   <v type="int" >       22 </v>
   <v type="int" >       23 </v>
   <v type="int" >       24 </v>
   <v type="int" >       25 </v>
   <v type="int" >       26 </v>
   <v type="int" >       27 </v>
   <v type="int" >       28 </v>
   <v type="int" >       29 </v>
   <v type="int" >       30 </v>
   <v type="int" >       31 </v>
   <v type="int" >       32 </v>
   <v type="int" >       33 </v>
   <v type="int" >       34 </v>
   <v type="int" >       35 </v>
   <v type="int" >       36 </v>
   <v type="int" >       37 </v>
   <v type="int" >       38 </v>
   <v type="int" >       39 </v>
   <v type="int" >       40 </v>
   <v type="int" >       41 </v>
   <v type="int" >       42 </v>
   <v type="int" >       43 </v>
   <v type="int" >       44 </v>
   <v type="int" >       45 </v>
   <v type="int" >       46 </v>
   <v type="int" >       47 </v>
   <v type="int" >       48 </v>
   <v type="int" >       49 </v>
   <v type="int" >       50 </v>
   <v type="int" >       51 </v>
   <v type="int" >       52 </v>
   <v type="int" >       53 </v>
   <v type="int" >       54 </v>
   <v type="int" >       55 </v>
   <v type="int" >       56 </v>
   <v type="int" >       57 </v>
   <v type="int" >       58 </v>
   <v type="int" >       59 </v>
   <v type="int" >       60 </v>
   <v type="int" >       61 </v>
   <v type="int" >       62 </v>
   <v type="int" >       63 </v>
   <v type="int" >       64 </v>
  </varray>
 </primitive_cell>
 <kpoints>
  <generation param="Gamma">
   <v type="int" name="divisions">       4        4        1 </v>
   <v name="usershift">      0.00000000       0.00000000       0.00000000 </v>
   <v name="genvec1">      0.25000000       0.00000000       0.00000000 </v>
   <v name="genvec2">      0.00000000       0.25000000       0.00000000 </v>
   <v name="genvec3">      0.00000000       0.00000000       1.00000000 </v>
   <v name="shift">      0.00000000       0.00000000       0.00000000 </v>
  </generation>
  <varray name="kpointlist" >
   <v>       0.00000000       0.00000000       0.00000000 </v>
   <v>       0.25000000       0.00000000       0.00000000 </v>
   <v>       0.50000000       0.00000000       0.00000000 </v>
   <v>       0.00000000       0.25000000       0.00000000 </v>
   <v>       0.25000000       0.25000000       0.00000000 </v>
   <v>       0.50000000       0.25000000       0.00000000 </v>
   <v>      -0.25000000       0.25000000       0.00000000 </v>
   <v>       0.00000000       0.50000000       0.00000000 </v>
   <v>       0.25000000       0.50000000       0.00000000 </v>
   <v>       0.50000000       0.50000000       0.00000000 </v>
  </varray>
  <varray name="weights" >
   <v>       0.06250000 </v>
   <v>       0.12500000 </v>
   <v>       0.06250000 </v>
   <v>       0.12500000 </v>
   <v>       0.12500000 </v>
   <v>       0.12500000 </v>
   <v>       0.12500000 </v>
   <v>       0.06250000 </v>
   <v>       0.12500000 </v>
   <v>       0.06250000 </v>
  </varray>
 </kpoints>
 <parameters>
  <separator name="general" >
   <i type="string" name="SYSTEM">ni3al</i>
   <i type="logical" name="LCOMPAT"> F  </i>
  </separator>
  <separator name="electronic" >
   <i type="string" name="PREC">accura</i>
   <i name="ENMAX">    450.00000000</i>
   <i name="ENAUG">    519.42400000</i>
   <i name="EDIFF">      0.00001000</i>
   <i type="int" name="IALGO">    38</i>
   <i type="int" name="IWAVPR">    11</i>
   <i type="int" name="NBANDS">   376</i>
   <i type="int" name="NBANDSLOW">    -1</i>
   <i type="int" name="NBANDSHIGH">    -1</i>
   <i name="NELECT">    574.00000000</i>
   <i type="int" name="TURBO">     0</i>
   <i type="int" name="IRESTART">     0</i>
   <i type="int" name="NREBOOT">     0</i>
   <i type="int" name="NMIN">     0</i>
   <i name="EREF">      0.00000000</i>
   <separator name="electronic smearing" >
    <i type="int" name="ISMEAR">     1</i>
    <i name="SIGMA">      0.15000000</i>
    <i name="KSPACING">      0.50000000</i>
    <i type="logical" name="KGAMMA"> T  </i>
    <i type="logical" name="KBLOWUP"> T  </i>
   </separator>
   <separator name="electronic projectors" >
    <i type="logical" name="LREAL"> T  </i>
    <v name="ROPT">     -0.00025000     -0.00025000     -0.00025000</v>
    <i type="int" name="LMAXPAW">  -100</i>
    <i type="int" name="LMAXMIX">     4</i>
    <i type="logical" name="NLSPLINE"> F  </i>
   </separator>
   <separator name="electronic startup" >
    <i type="int" name="ISTART">     0</i>
    <i type="int" name="ICHARG">     1</i>
    <i type="int" name="INIWAV">     1</i>
   </separator>
   <separator name="electronic spin" >
    <i type="int" name="ISPIN">     2</i>
    <i type="logical" name="LNONCOLLINEAR"> F  </i>
    <v name="MAGMOM">      1.00000000      1.00000000      1.00000000      1.00000000      1.00000000      1.00000000      1.00000000      1.00000000      1.00000000      1.00000000      1.00000000      1.00000000      1.00000000      1.00000000      1.00000000      1.00000000      1.00000000      1.00000000      1.00000000      1.00000000
      1.00000000      1.00000000      1.00000000      1.00000000      1.00000000      1.00000000      1.00000000      1.00000000      1.00000000      1.00000000      1.00000000      1.00000000      1.00000000      1.00000000      1.00000000      1.00000000      1.00000000      1.00000000      1.00000000      1.00000000
      1.00000000      1.00000000      1.00000000      1.00000000      1.00000000      1.00000000      1.00000000      1.00000000      1.00000000      1.00000000      1.00000000      1.00000000      1.00000000      1.00000000      1.00000000      1.00000000      1.00000000      1.00000000      1.00000000      1.00000000
      1.00000000      1.00000000      1.00000000      1.00000000</v>
    <i name="NUPDOWN">     -1.00000000</i>
    <i type="logical" name="LSORBIT"> F  </i>
    <v name="SAXIS">      0.00000000      0.00000000      1.00000000</v>
    <i type="logical" name="LSPIRAL"> F  </i>
    <v name="QSPIRAL">      0.00000000      0.00000000      0.00000000</v>
    <i type="logical" name="LZEROZ"> F  </i>
   </separator>
   <separator name="electronic exchange-correlation" >
    <i type="logical" name="LASPH"> F  </i>
    <i type="logical" name="LMETAGGA"> F  </i>
   </separator>
   <separator name="electronic convergence" >
    <i type="int" name="NELM">   150</i>
    <i type="int" name="NELMDL">     0</i>
    <i type="int" name="NELMIN">     2</i>
    <i name="ENINI">    450.00000000</i>
    <separator name="electronic convergence detail" >
     <i type="logical" name="LDIAG"> T  </i>
     <i type="logical" name="LSUBROT"> F  </i>
     <i name="WEIMIN">      0.00100000</i>
     <i name="EBREAK">      0.00000001</i>
     <i name="DEPER">      0.30000000</i>
     <i type="int" name="NRMM">     4</i>
     <i name="TIME">      0.40000000</i>
    </separator>
   </separator>
   <separator name="electronic mixer" >
    <i name="AMIX">      0.05000000</i>
    <i name="BMIX">      0.00010000</i>
    <i name="AMIN">      0.01000000</i>
    <i name="AMIX_MAG">      0.20000000</i>
    <i name="BMIX_MAG">      0.00010000</i>
    <separator name="electronic mixer details" >
     <i type="int" name="IMIX">     4</i>
     <i type="logical" name="MIXFIRST"> F  </i>
     <i type="int" name="MAXMIX">   -45</i>
     <i name="WC">    100.00000000</i>
     <i type="int" name="INIMIX">     1</i>
     <i type="int" name="MIXPRE">     1</i>
     <i type="int" name="MREMOVE">     5</i>
    </separator>
   </separator>
   <separator name="electronic dipolcorrection" >
    <i type="logical" name="LDIPOL"> T  </i>
    <i type="logical" name="LMONO"> F  </i>
    <i type="int" name="IDIPOL">     3</i>
    <i name="EPSILON">      1.00000000</i>
    <v name="DIPOL">   -100.00000000   -100.00000000   -100.00000000</v>
    <i name="EFIELD">      0.00000000</i>
   </separator>
  </separator>
  <separator name="grids" >
   <i type="int" name="NGX">    60</i>
   <i type="int" name="NGY">    60</i>
   <i type="int" name="NGZ">   168</i>
   <i type="int" name="NGXF">   120</i>
   <i type="int" name="NGYF">   120</i>
   <i type="int" name="NGZF">   336</i>
   <i type="logical" name="ADDGRID"> F  </i>
  </separator>
  <separator name="ionic" >
   <i type="int" name="NSW">   300</i>
   <i type="int" name="IBRION">     2</i>
   <i type="int" name="MDALGO">     0</i>
   <i type="int" name="ISIF">     2</i>
   <i name="PSTRESS">      0.00000000</i>
   <i name="EDIFFG">     -0.02000000</i>
   <i type="int" name="NFREE">     1</i>
   <i name="POTIM">      0.50000000</i>
   <i name="SMASS">     -3.00000000</i>
   <i name="SCALEE">      1.00000000</i>
  </separator>
  <separator name="ionic md" >
   <i name="TEBEG">      0.00010000</i>
   <i name="TEEND">      0.00010000</i>
   <i type="int" name="NBLOCK">     1</i>
   <i type="int" name="KBLOCK">   300</i>
   <i type="int" name="NPACO">   256</i>
   <i name="APACO">     10.00000000</i>
  </separator>
  <separator name="symmetry" >
   <i type="int" name="ISYM">     2</i>
   <i name="SYMPREC">      0.00001000</i>
  </separator>
  <separator name="dos" >
   <i type="int" name="LORBIT">     0</i>
   <v name="RWIGS">     -1.00000000     -1.00000000     -1.00000000</v>
   <i type="int" name="NEDOS">   301</i>
   <i name="EMIN">     10.00000000</i>
   <i name="EMAX">    -10.00000000</i>
   <i name="EFERMI">      0.00000000</i>
  </separator>
  <separator name="writing" >
   <i type="int" name="NWRITE">     2</i>
   <i type="logical" name="LWAVE"> F  </i>
   <i type="logical" name="LDOWNSAMPLE"> F  </i>
   <i type="logical" name="LCHARG"> F  </i>
   <i type="logical" name="LPARD"> F  </i>
   <i type="logical" name="LVTOT"> F  </i>
   <i type="logical" name="LVHAR"> F  </i>
   <i type="logical" name="LELF"> F  </i>
   <i type="logical" name="LOPTICS"> F  </i>
   <v name="STM">      0.00000000      0.00000000      0.00000000      0.00000000      0.00000000      0.00000000      0.00000000</v>
  </separator>
  <separator name="performance" >
   <i type="int" name="NPAR">     1</i>
   <i type="int" name="NSIM">     4</i>
   <i type="int" name="NBLK">    -1</i>
   <i type="logical" name="LPLANE"> T  </i>
   <i type="logical" name="LSCALAPACK"> T  </i>
   <i type="logical" name="LSCAAWARE"> F  </i>
   <i type="logical" name="LSCALU"> F  </i>
   <i type="logical" name="LASYNC"> F  </i>
   <i type="logical" name="LORBITALREAL"> F  </i>
  </separator>
  <separator name="miscellaneous" >
   <i type="int" name="IDIOT">     3</i>
   <i type="int" name="PHON_NSTRUCT">    -1</i>
   <i type="logical" name="LMUSIC"> F  </i>
   <v name="POMASS">     55.84700000     51.99600000    207.20000000</v>
   <v name="DARWINR">      0.00000000      0.00000000      0.00000000</v>
   <v name="DARWINV">      1.00000000      1.00000000      1.00000000</v>
   <i type="logical" name="LCORR"> T  </i>
  </separator>
  <i type="logical" name="GGA_COMPAT"> T  </i>
  <i type="logical" name="LBERRY"> F  </i>
  <i type="int" name="ICORELEVEL">     0</i>
  <i type="logical" name="LDAU"> F  </i>
  <i type="int" name="I_CONSTRAINED_M">     0</i>
  <separator name="electronic exchange-correlation" >
   <i type="string" name="GGA">--</i>
   <i type="int" name="VOSKOWN">     0</i>
   <i type="logical" name="LHFCALC"> F  </i>
   <i type="string" name="PRECFOCK"></i>
   <i type="logical" name="LSYMGRAD"> F  </i>
   <i type="logical" name="LHFONE"> F  </i>
   <i type="logical" name="LRHFCALC"> F  </i>
   <i type="logical" name="LTHOMAS"> F  </i>
   <i type="logical" name="LMODELHF"> F  </i>
   <i type="logical" name="LFOCKACE"> F  </i>
   <i name="ENCUT4O">     -1.00000000</i>
   <i type="int" name="EXXOEP">     0</i>
   <i type="int" name="FOURORBIT">     0</i>
   <i name="AEXX">      0.00000000</i>
   <i name="HFALPHA">      0.00000000</i>
   <i name="MCALPHA">      0.00000000</i>
   <i name="ALDAX">      1.00000000</i>
   <i name="AGGAX">      1.00000000</i>
   <i name="ALDAC">      1.00000000</i>
   <i name="AGGAC">      1.00000000</i>
   <i type="int" name="NKREDX">     1</i>
   <i type="int" name="NKREDY">     1</i>
   <i type="int" name="NKREDZ">     1</i>
   <i type="logical" name="SHIFTRED"> F  </i>
   <i type="logical" name="ODDONLY"> F  </i>
   <i type="logical" name="EVENONLY"> F  </i>
   <i type="int" name="LMAXFOCK">     0</i>
   <i type="int" name="NMAXFOCKAE">     0</i>
   <i type="logical" name="LFOCKAEDFT"> F  </i>
   <i name="HFSCREEN">      0.00000000</i>
   <i name="HFSCREENC">      0.00000000</i>
   <i type="int" name="NBANDSGWLOW">     0</i>
  </separator>
  <separator name="vdW DFT" >
   <i type="logical" name="LUSE_VDW"> F  </i>
   <i name="Zab_VDW">     -0.84910000</i>
   <i name="PARAM1">      0.12340000</i>
   <i name="PARAM2">      1.00000000</i>
   <i name="PARAM3">      0.00000000</i>
  </separator>
  <separator name="model GW" >
   <i type="int" name="MODEL_GW">     0</i>
   <i name="MODEL_EPS0">     16.03774504</i>
   <i name="MODEL_ALPHA">      1.00000000</i>
  </separator>
  <separator name="linear response parameters" >
   <i type="logical" name="LEPSILON"> F  </i>
   <i type="logical" name="LRPA"> F  </i>
   <i type="logical" name="LNABLA"> F  </i>
   <i type="logical" name="LVEL"> F  </i>
   <i name="CSHIFT">      0.10000000</i>
   <i name="OMEGAMAX">     -1.00000000</i>
   <i name="DEG_THRESHOLD">      0.00200000</i>
   <i name="RTIME">     -0.10000000</i>
   <i name="WPLASMAI">      0.00000000</i>
   <v name="DFIELD">      0.00000000      0.00000000      0.00000000</v>
   <v name="WPLASMA">      0.00000000      0.00000000      0.00000000      0.00000000      0.00000000      0.00000000      0.00000000      0.00000000      0.00000000</v>
  </separator>
  <separator name="orbital magnetization" >
   <i type="logical" name="NUCIND"> F  </i>
   <v name="MAGPOS">      0.00000000      0.00000000      0.00000000</v>
   <i type="logical" name="LNICSALL"> T  </i>
   <i type="logical" name="ORBITALMAG"> F  </i>
   <i type="logical" name="LMAGBLOCH"> F  </i>
   <i type="logical" name="LCHIMAG"> F  </i>
   <i type="logical" name="LGAUGE"> T  </i>
   <i type="int" name="MAGATOM">     0</i>
   <v name="MAGDIPOL">      0.00000000      0.00000000      0.00000000</v>
   <v name="AVECCONST">      0.00000000      0.00000000      0.00000000</v>
  </separator>
  <separator name="response functions" >
   <i type="logical" name="LFINITE_TEMPERATURE"> F  </i>
   <i type="logical" name="LADDER"> F  </i>
   <i type="logical" name="LRPAFORCE"> F  </i>
   <i type="logical" name="LFXC"> F  </i>
   <i type="logical" name="LHARTREE"> T  </i>
   <i type="int" name="IBSE">     0</i>
   <v type="int" name="KPOINT">    -1     0     0     0</v>
   <i type="logical" name="LTCTC"> F  </i>
   <i type="logical" name="LTCTE"> F  </i>
   <i type="logical" name="LTETE"> F  </i>
   <i type="logical" name="LTRIPLET"> F  </i>
   <i type="logical" name="LFXCEPS"> F  </i>
   <i type="logical" name="LFXHEG"> F  </i>
   <i type="int" name="NATURALO">     2</i>
   <i type="logical" name="LHOLEGF"> F  </i>
   <i type="logical" name="L2ORDER"> F  </i>
   <i type="logical" name="LDMP1"> F  </i>
   <i type="logical" name="LMP2LT"> F  </i>
   <i type="logical" name="LSMP2LT"> F  </i>
   <i type="logical" name="LGWLF"> F  </i>
   <i name="ENCUTGW">     -2.00000000</i>
   <i name="ENCUTGWSOFT">     -2.00000000</i>
   <i name="ENCUTLF">     -1.00000000</i>
   <i type="logical" name="LESF_SPLINES"> F  </i>
   <i type="int" name="LMAXMP2">    -1</i>
   <i name="SCISSOR">      0.00000000</i>
   <i type="int" name="NOMEGA">     0</i>
   <i type="int" name="NOMEGAR">     0</i>
   <i type="int" name="NBANDSGW">    -1</i>
   <i type="int" name="NBANDSO">    -1</i>
   <i type="int" name="NBANDSV">    -1</i>
   <i type="int" name="NELMGW">     1</i>
   <i type="int" name="NELMHF">     1</i>
   <i type="int" name="DIM">     3</i>
   <i type="int" name="IESPILON">     4</i>
   <i type="int" name="ANTIRES">     0</i>
   <i name="OMEGAMAX">    -30.00000000</i>
   <i name="OMEGAMIN">    -30.00000000</i>
   <i name="OMEGATL">   -200.00000000</i>
   <i type="int" name="OMEGAGRID">     0</i>
   <i name="CSHIFT">     -0.10000000</i>
   <i type="logical" name="LSELFENERGY"> F  </i>
   <i type="logical" name="LSPECTRAL"> F  </i>
   <i type="logical" name="LSPECTRALGW"> F  </i>
   <i type="logical" name="LSINGLES"> F  </i>
   <i type="logical" name="LFERMIGW"> F  </i>
   <i type="logical" name="ODDONLYGW"> F  </i>
   <i type="logical" name="EVENONLYGW"> F  </i>
   <i type="int" name="NKREDLFX">     1</i>
   <i type="int" name="NKREDLFY">     1</i>
   <i type="int" name="NKREDLFZ">     1</i>
   <i type="int" name="MAXMEM">  2800</i>
   <i type="int" name="TELESCOPE">     0</i>
   <i type="int" name="NTAUPAR">    -1</i>
   <i type="int" name="NOMEGAPAR">    -1</i>
   <i name="DAMP_NEWTON">      0.80000001</i>
   <i name="LAMBDA">      1.00000000</i>
  </separator>
  <separator name="External order field" >
   <i name="OFIELD_KAPPA">      0.00000000</i>
   <v name="OFIELD_K">      0.00000000      0.00000000      0.00000000</v>
   <i name="OFIELD_Q6_NEAR">      0.00000000</i>
   <i name="OFIELD_Q6_FAR">      0.00000000</i>
   <i name="OFIELD_A">      0.00000000</i>
  </separator>
  <separator name="optional k-points parameters" >
   <i type="int" name="KPOINTS_OPT_MODE">     1</i>
   <i type="logical" name="LKPOINTS_OPT"> F  </i>
  </separator>
  <separator name="solvation model" >
   <i type="logical" name="LSOL"> F  </i>
  </separator>
 </parameters>
 <atominfo>
  <atoms>      64 </atoms>
  <types>       3 </types>
  <array name="atoms" >
   <dimension dim="1">ion</dimension>
   <field type="string">element</field>
   <field type="int">atomtype</field>
   <set>
    <rc><c>Fe</c><c>   1</c></rc>
    <rc><c>Fe</c><c>   1</c></rc>
    <rc><c>Fe</c><c>   1</c></rc>
    <rc><c>Fe</c><c>   1</c></rc>
    <rc><c>Fe</c><c>   1</c></rc>
    <rc><c>Fe</c><c>   1</c></rc>
    <rc><c>Fe</c><c>   1</c></rc>
    <rc><c>Fe</c><c>   1</c></rc>
    <rc><c>Fe</c><c>   1</c></rc>
    <rc><c>Fe</c><c>   1</c></rc>
    <rc><c>Fe</c><c>   1</c></rc>
    <rc><c>Fe</c><c>   1</c></rc>
    <rc><c>Fe</c><c>   1</c></rc>
    <rc><c>Fe</c><c>   1</c></rc>
    <rc><c>Fe</c><c>   1</c></rc>
    <rc><c>Fe</c><c>   1</c></rc>
    <rc><c>Fe</c><c>   1</c></rc>
    <rc><c>Fe</c><c>   1</c></rc>
    <rc><c>Fe</c><c>   1</c></rc>
    <rc><c>Fe</c><c>   1</c></rc>
    <rc><c>Fe</c><c>   1</c></rc>
    <rc><c>Fe</c><c>   1</c></rc>
    <rc><c>Fe</c><c>   1</c></rc>
    <rc><c>Fe</c><c>   1</c></rc>
    <rc><c>Fe</c><c>   1</c></rc>
    <rc><c>Fe</c><c>   1</c></rc>
    <rc><c>Fe</c><c>   1</c></rc>
    <rc><c>Fe</c><c>   1</c></rc>
    <rc><c>Fe</c><c>   1</c></rc>
    <rc><c>Fe</c><c>   1</c></rc>
    <rc><c>Fe</c><c>   1</c></rc>
    <rc><c>Fe</c><c>   1</c></rc>
    <rc><c>Fe</c><c>   1</c></rc>
    <rc><c>Fe</c><c>   1</c></rc>
    <rc><c>Fe</c><c>   1</c></rc>
    <rc><c>Fe</c><c>   1</c></rc>
    <rc><c>Fe</c><c>   1</c></rc>
    <rc><c>Fe</c><c>   1</c></rc>
    <rc><c>Fe</c><c>   1</c></rc>
    <rc><c>Fe</c><c>   1</c></rc>
    <rc><c>Fe</c><c>   1</c></rc>
    <rc><c>Fe</c><c>   1</c></rc>
    <rc><c>Fe</c><c>   1</c></rc>
    <rc><c>Fe</c><c>   1</c></rc>
    <rc><c>Fe</c><c>   1</c></rc>
    <rc><c>Fe</c><c>   1</c></rc>
    <rc><c>Fe</c><c>   1</c></rc>
    <rc><c>Fe</c><c>   1</c></rc>
    <rc><c>Fe</c><c>   1</c></rc>
    <rc><c>Cr</c><c>   2</c></rc>
    <rc><c>Cr</c><c>   2</c></rc>
    <rc><c>Cr</c><c>   2</c></rc>
    <rc><c>Cr</c><c>   2</c></rc>
    <rc><c>Cr</c><c>   2</c></rc>
    <rc><c>Cr</c><c>   2</c></rc>
    <rc><c>Cr</c><c>   2</c></rc>
    <rc><c>Cr</c><c>   2</c></rc>
    <rc><c>Cr</c><c>   2</c></rc>
    <rc><c>Cr</c><c>   2</c></rc>
    <rc><c>Cr</c><c>   2</c></rc>
    <rc><c>Cr</c><c>   2</c></rc>
    <rc><c>Cr</c><c>   2</c></rc>
    <rc><c>Cr</c><c>   2</c></rc>
    <rc><c>Pb</c><c>   3</c></rc>
   </set>
  </array>
  <array name="atomtypes" >
   <dimension dim="1">type</dimension>
   <field type="int">atomspertype</field>
   <field type="string">element</field>
   <field>mass</field>
   <field>valence</field>
   <field type="string">pseudopotential</field>
   <set>
    <rc><c>  49</c><c>Fe</c><c>     55.84700000</c><c>      8.00000000</c><c>  PAW_PBE Fe 06Sep2000                  </c></rc>
    <rc><c>  14</c><c>Cr</c><c>     51.99600000</c><c>     12.00000000</c><c>  PAW_PBE Cr_pv 02Aug2007               </c></rc>
    <rc><c>   1</c><c>Pb</c><c>    207.20000000</c><c>     14.00000000</c><c>  PAW_PBE Pb_d 06Sep2000                </c></rc>
   </set>
  </array>
 </atominfo>
 <structure name="initialpos" >
  <crystal>
   <varray name="basis" >
    <v>       8.53269958       0.00000000       0.00000000 </v>
    <v>      -0.00051933       8.49699972       0.00000000 </v>
    <v>       0.00000000       0.00000000      23.59499931 </v>
   </varray>
   <i name="volume">   1710.69280467 </i>
   <varray name="rec_basis" >
    <v>       0.11719620       0.00000716       0.00000000 </v>
    <v>       0.00000000       0.11768860       0.00000000 </v>
    <v>       0.00000000       0.00000000       0.04238186 </v>
   </varray>
  </crystal>
  <varray name="positions" >
   <v>       0.00086000       0.99993000       0.24271000 </v>
   <v>       0.16589957       0.16471079       0.30323101 </v>
   <v>       0.50544035       0.16970429       0.30604542 </v>
   <v>       0.66822000       0.00107000       0.24272000 </v>
   <v>       0.83417243       0.16743432       0.30394797 </v>
   <v>       0.00044000       0.33497000       0.24240000 </v>
   <v>       0.16685214       0.50206384       0.30400934 </v>
   <v>       0.33469000       0.33305000       0.24267000 </v>
   <v>       0.49980869       0.49742802       0.30372178 </v>
   <v>       0.83502648       0.50420770       0.30217990 </v>
   <v>       0.16863847       0.83457814       0.30501553 </v>
   <v>       0.33342000       0.66555000       0.24261000 </v>
   <v>       0.83648674       0.83311478       0.30363590 </v>
   <v>       0.00064000       0.00119000       0.00199000 </v>
   <v>       0.99637837       0.00459563       0.36160297 </v>
   <v>       0.16843000       0.16962000       0.06269000 </v>
   <v>       0.33460000       0.00297000       0.00254000 </v>
   <v>       0.33708720       0.00653675       0.36195768 </v>
   <v>       0.50463000       0.16850000       0.06120000 </v>
   <v>       0.83272000       0.16670000       0.06193000 </v>
   <v>       0.00004000       0.33467000       0.00213000 </v>
   <v>       0.99857738       0.33186373       0.36006574 </v>
   <v>       0.16757000       0.49895000       0.06268000 </v>
   <v>       0.50099000       0.49896000       0.06206000 </v>
   <v>       0.83393000       0.50234000       0.06235000 </v>
   <v>       0.00121000       0.66785000       0.00188000 </v>
   <v>       0.99786624       0.66609651       0.36044313 </v>
   <v>       0.16792000       0.83462000       0.06228000 </v>
   <v>       0.33437000       0.66664000       0.00225000 </v>
   <v>       0.34005745       0.66315868       0.36175193 </v>
   <v>       0.50152000       0.83563000       0.06217000 </v>
   <v>       0.66753000       0.66705000       0.00175000 </v>
   <v>       0.66339310       0.66459610       0.36034303 </v>
   <v>       0.83293000       0.83584000       0.06235000 </v>
   <v>       0.00121000       0.00098000       0.12225000 </v>
   <v>       0.16700000       0.16811000       0.18239000 </v>
   <v>       0.33470000       0.00227000       0.12192000 </v>
   <v>       0.50174000       0.16716000       0.18263000 </v>
   <v>       0.83421000       0.16639000       0.18283000 </v>
   <v>       0.16964000       0.49868000       0.18209000 </v>
   <v>       0.50219000       0.50081000       0.18317000 </v>
   <v>       0.66741000       0.33395000       0.12233000 </v>
   <v>       0.83134000       0.50253000       0.18283000 </v>
   <v>       0.00132000       0.66795000       0.12253000 </v>
   <v>       0.16898000       0.83509000       0.18243000 </v>
   <v>       0.33446000       0.66703000       0.12223000 </v>
   <v>       0.49971000       0.83538000       0.18278000 </v>
   <v>       0.66698000       0.66840000       0.12259000 </v>
   <v>       0.83488000       0.83403000       0.18294000 </v>
   <v>       0.33558000       0.99863000       0.24353000 </v>
   <v>       0.66801000       0.33262000       0.24229000 </v>
   <v>       0.00448000       0.66739000       0.24217000 </v>
   <v>       0.49661475       0.83343711       0.30116455 </v>
   <v>       0.66521000       0.67351000       0.24327000 </v>
   <v>       0.66620000       0.99680000       0.00000000 </v>
   <v>       0.66737432       0.98761411       0.36400103 </v>
   <v>       0.33213000       0.33386000       0.00135000 </v>
   <v>       0.32276710       0.33243764       0.36515367 </v>
   <v>       0.67040000       0.33673000       0.00321000 </v>
   <v>       0.67730008       0.34335154       0.36693267 </v>
   <v>       0.66728000       0.99998000       0.12246000 </v>
   <v>       0.99806000       0.33495000       0.12235000 </v>
   <v>       0.33675000       0.33238000       0.12261000 </v>
   <v>       0.50544000       0.16970000       0.42000000 </v>
  </varray>
  <varray name="selective"  type="logical" >
   <v type="logical" >  F  F  F </v>
   <v type="logical" >  T  T  T </v>
   <v type="logical" >  T  T  T </v>
   <v type="logical" >  F  F  F </v>
   <v type="logical" >  T  T  T </v>
   <v type="logical" >  F  F  F </v>
   <v type="logical" >  T  T  T </v>
   <v type="logical" >  F  F  F </v>
   <v type="logical" >  T  T  T </v>
   <v type="logical" >  T  T  T </v>
   <v type="logical" >  T  T  T </v>
   <v type="logical" >  F  F  F </v>
   <v type="logical" >  T  T  T </v>
   <v type="logical" >  F  F  F </v>
   <v type="logical" >  T  T  T </v>
   <v type="logical" >  F  F  F </v>
   <v type="logical" >  F  F  F </v>
   <v type="logical" >  T  T  T </v>
   <v type="logical" >  F  F  F </v>
   <v type="logical" >  F  F  F </v>
   <v type="logical" >  F  F  F </v>
   <v type="logical" >  T  T  T </v>
   <v type="logical" >  F  F  F </v>
   <v type="logical" >  F  F  F </v>
   <v type="logical" >  F  F  F </v>
   <v type="logical" >  F  F  F </v>
   <v type="logical" >  T  T  T </v>
   <v type="logical" >  F  F  F </v>
   <v type="logical" >  F  F  F </v>
   <v type="logical" >  T  T  T </v>
   <v type="logical" >  F  F  F </v>
   <v type="logical" >  F  F  F </v>
   <v type="logical" >  T  T  T </v>
   <v type="logical" >  F  F  F </v>
   <v type="logical" >  F  F  F </v>
   <v type="logical" >  F  F  F </v>
   <v type="logical" >  F  F  F </v>
   <v type="logical" >  F  F  F </v>
   <v type="logical" >  F  F  F </v>
   <v type="logical" >  F  F  F </v>
   <v type="logical" >  F  F  F </v>
   <v type="logical" >  F  F  F </v>
   <v type="logical" >  F  F  F </v>
   <v type="logical" >  F  F  F </v>
   <v type="logical" >  F  F  F </v>
   <v type="logical" >  F  F  F </v>
   <v type="logical" >  F  F  F </v>
   <v type="logical" >  F  F  F </v>
   <v type="logical" >  F  F  F </v>
   <v type="logical" >  F  F  F </v>
   <v type="logical" >  F  F  F </v>
   <v type="logical" >  F  F  F </v>
   <v type="logical" >  T  T  T </v>
   <v type="logical" >  F  F  F </v>
   <v type="logical" >  F  F  F </v>
   <v type="logical" >  T  T  T </v>
   <v type="logical" >  F  F  F </v>
   <v type="logical" >  T  T  T </v>
   <v type="logical" >  F  F  F </v>
   <v type="logical" >  T  T  T </v>
   <v type="logical" >  F  F  F </v>
   <v type="logical" >  F  F  F </v>
   <v type="logical" >  F  F  F </v>
   <v type="logical" >  T  T  T </v>
  </varray>
  <nose>
   <v>      -3.00000000       0.00000000       0.00010000       0.00010000 </v>
  </nose>
 </structure>
 <calculation>
  <scstep>
   <time name="dav">  126.36   18.13</time>
   <time name="total">  147.60   23.69</time>
   <dipole>
    <v name="dipole">      0.00000000       0.00000000      -0.00002122 </v>
    <i name="Tr[quadrupol]">  -7262.31490430 </i>
    <i name="Echarged">      0.00000000 </i>
    <i name="Edipol_quadrupol">      0.00000000 </i>
    <i name="Eion">      0.00000000 </i>
   </dipole>
   <energy>
    <i name="alphaZ">   1868.92989385 </i>
    <i name="ewald"> 212631.97307209 </i>
    <i name="hartreedc">-264478.57652673 </i>
    <i name="XCdc">   1000.65011030 </i>
    <i name="pawpsdc">  46919.87437312 </i>
    <i name="pawaedc"> -47958.31232237 </i>
    <i name="eentropy">     -0.00918108 </i>
    <i name="bandstr">   1884.69236552 </i>
    <i name="atom">  53853.58386974 </i>
    <i name="e_fr_energy">   5722.80565444 </i>
    <i name="e_wo_entrp">   5722.81483552 </i>
    <i name="e_0_energy">   5722.80871480 </i>
   </energy>
  </scstep>
  <scstep>
   <time name="dav">  120.46   17.26</time>
   <time name="total">  120.57   17.28</time>
   <dipole>
    <v name="dipole">      0.00000000       0.00000000      -0.00002122 </v>
    <i name="Tr[quadrupol]">  -7262.31490430 </i>
    <i name="Echarged">      0.00000000 </i>
    <i name="Edipol_quadrupol">      0.00000000 </i>
    <i name="Eion">      0.00000000 </i>
   </dipole>
   <energy>
    <i name="e_fr_energy">    -53.98885445 </i>
    <i name="e_wo_entrp">    -53.98610002 </i>
    <i name="e_0_energy">    -53.98793631 </i>
   </energy>
  </scstep>
  <scstep>
   <time name="dav">  122.82   17.60</time>
   <time name="total">  122.88   17.61</time>
   <dipole>
    <v name="dipole">      0.00000000       0.00000000      -0.00002122 </v>
    <i name="Tr[quadrupol]">  -7262.31490430 </i>
    <i name="Echarged">      0.00000000 </i>
    <i name="Edipol_quadrupol">      0.00000000 </i>
    <i name="Eion">      0.00000000 </i>
   </dipole>
   <energy>
    <i name="e_fr_energy">   -526.52834749 </i>
    <i name="e_wo_entrp">   -526.52680553 </i>
    <i name="e_0_energy">   -526.52783351 </i>
   </energy>
  </scstep>
  <scstep>
   <time name="dav">  186.93   26.91</time>
   <time name="total">  187.06   26.93</time>
   <dipole>
    <v name="dipole">      0.00000000       0.00000000      -0.00002122 </v>
    <i name="Tr[quadrupol]">  -7262.31490430 </i>
    <i name="Echarged">      0.00000000 </i>
    <i name="Edipol_quadrupol">      0.00000000 </i>
    <i name="Eion">      0.00000000 </i>
   </dipole>
   <energy>
    <i name="e_fr_energy">   -587.60624712 </i>
    <i name="e_wo_entrp">   -587.62241508 </i>
    <i name="e_0_energy">   -587.61163644 </i>
   </energy>
  </scstep>
  <scstep>
   <time name="dav">  177.15   25.44</time>
   <time name="total">  181.61   26.42</time>
   <dipole>
    <v name="dipole">      0.00000000       0.00000000      -0.00002122 </v>
    <i name="Tr[quadrupol]">  -7262.31490430 </i>
    <i name="Echarged">      0.00000000 </i>
    <i name="Edipol_quadrupol">      0.00000000 </i>
    <i name="Eion">      0.00000000 </i>
   </dipole>
   <energy>
    <i name="e_fr_energy">   -591.12240023 </i>
    <i name="e_wo_entrp">   -591.14393052 </i>
    <i name="e_0_energy">   -591.12957699 </i>
   </energy>
  </scstep>
  <scstep>
   <time name="dav">  192.88   27.80</time>
   <time name="total">  218.42   34.33</time>
   <dipole>
    <v name="dipole">      0.00000000       0.00000000       2.18412398 </v>
    <i name="Tr[quadrupol]">  -7285.23650261 </i>
    <i name="Echarged">      0.00000000 </i>
    <i name="Edipol_quadrupol">      0.00000000 </i>
    <i name="Eion">      0.00000000 </i>
   </dipole>
   <energy>
    <i name="e_fr_energy">   -774.30886273 </i>
    <i name="e_wo_entrp">   -774.29102530 </i>
    <i name="e_0_energy">   -774.30291692 </i>
   </energy>
  </scstep>
  <scstep>
   <time name="dav">  195.93   28.19</time>
   <time name="total">  221.83   34.73</time>
   <dipole>
    <v name="dipole">      0.00000000       0.00000000      -1.45698059 </v>
    <i name="Tr[quadrupol]">  -7276.36323086 </i>
    <i name="Echarged">      0.00000000 </i>
    <i name="Edipol_quadrupol">      0.00000000 </i>
    <i name="Eion">      0.00000000 </i>
   </dipole>
   <energy>
    <i name="e_fr_energy">   -696.72538601 </i>
    <i name="e_wo_entrp">   -696.72296436 </i>
    <i name="e_0_energy">   -696.72457879 </i>
   </energy>
  </scstep>
  <scstep>
   <time name="dav">  194.73   27.98</time>
   <time name="total">  220.00   34.42</time>
   <dipole>
    <v name="dipole">      0.00000000       0.00000000       0.58512971 </v>
    <i name="Tr[quadrupol]">  -7271.21386569 </i>
    <i name="Echarged">      0.00000000 </i>
    <i name="Edipol_quadrupol">      0.00000000 </i>
    <i name="Eion">      0.00000000 </i>
   </dipole>
   <energy>
    <i name="e_fr_energy">   -557.74885892 </i>
    <i name="e_wo_entrp">   -557.72935724 </i>
    <i name="e_0_energy">   -557.74235836 </i>
   </energy>
  </scstep>
  <scstep>
   <time name="dav">  181.85   26.17</time>
   <time name="total">  207.32   32.67</time>
   <dipole>
    <v name="dipole">      0.00000000       0.00000000       0.08632290 </v>
    <i name="Tr[quadrupol]">  -7269.55441719 </i>
    <i name="Echarged">      0.00000000 </i>
    <i name="Edipol_quadrupol">      0.00000000 </i>
    <i name="Eion">      0.00000000 </i>
   </dipole>
   <energy>
    <i name="e_fr_energy">   -540.36814045 </i>
    <i name="e_wo_entrp">   -540.39098181 </i>
    <i name="e_0_energy">   -540.37575424 </i>
   </energy>
  </scstep>
  <scstep>
   <time name="dav">  176.71   25.38</time>
   <time name="total">  201.57   31.83</time>
   <dipole>
    <v name="dipole">      0.00000000       0.00000000       0.28825308 </v>
    <i name="Tr[quadrupol]">  -7270.13297373 </i>
    <i name="Echarged">      0.00000000 </i>
    <i name="Edipol_quadrupol">      0.00000000 </i>
    <i name="Eion">      0.00000000 </i>
   </dipole>
   <energy>
    <i name="e_fr_energy">   -528.55995538 </i>
    <i name="e_wo_entrp">   -528.56325211 </i>
    <i name="e_0_energy">   -528.56105429 </i>
   </energy>
  </scstep>
  <scstep>
   <time name="dav">  162.74   23.46</time>
   <time name="total">  187.34   29.93</time>
   <dipole>
    <v name="dipole">      0.00000000       0.00000000      -0.04565870 </v>
    <i name="Tr[quadrupol]">  -7277.57545636 </i>
    <i name="Echarged">      0.00000000 </i>
    <i name="Edipol_quadrupol">      0.00000000 </i>
    <i name="Eion">      0.00000000 </i>
   </dipole>
   <energy>
    <i name="e_fr_energy">   -505.65487927 </i>
    <i name="e_wo_entrp">   -505.65485728 </i>
    <i name="e_0_energy">   -505.65487194 </i>
   </energy>
  </scstep>
  <scstep>
   <time name="dav">  163.29   23.54</time>
   <time name="total">  188.06   30.02</time>
   <dipole>
    <v name="dipole">      0.00000000       0.00000000       0.27193709 </v>
    <i name="Tr[quadrupol]">  -7283.41640432 </i>
    <i name="Echarged">      0.00000000 </i>
    <i name="Edipol_quadrupol">      0.00000000 </i>
    <i name="Eion">      0.00000000 </i>
   </dipole>
   <energy>
    <i name="e_fr_energy">   -501.36834466 </i>
    <i name="e_wo_entrp">   -501.39452934 </i>
    <i name="e_0_energy">   -501.37707289 </i>
   </energy>
  </scstep>
  <scstep>
   <time name="dav">  151.71   21.88</time>
   <time name="total">  176.50   28.39</time>
   <dipole>
    <v name="dipole">      0.00000000       0.00000000       0.16746075 </v>
    <i name="Tr[quadrupol]">  -7284.92292767 </i>
    <i name="Echarged">      0.00000000 </i>
    <i name="Edipol_quadrupol">      0.00000000 </i>
    <i name="Eion">      0.00000000 </i>
   </dipole>
   <energy>
    <i name="e_fr_energy">   -501.18873611 </i>
    <i name="e_wo_entrp">   -501.21144759 </i>
    <i name="e_0_energy">   -501.19630660 </i>
   </energy>
  </scstep>
  <scstep>
   <time name="dav">  172.96   24.88</time>
   <time name="total">  198.43   31.35</time>
   <dipole>
    <v name="dipole">      0.00000000       0.00000000       0.14108685 </v>
    <i name="Tr[quadrupol]">  -7284.52663722 </i>
    <i name="Echarged">      0.00000000 </i>
    <i name="Edipol_quadrupol">      0.00000000 </i>
    <i name="Eion">      0.00000000 </i>
   </dipole>
   <energy>
    <i name="e_fr_energy">   -501.12562705 </i>
    <i name="e_wo_entrp">   -501.16127216 </i>
    <i name="e_0_energy">   -501.13750875 </i>
   </energy>
  </scstep>
  <scstep>
   <time name="dav">  186.18   26.71</time>
   <time name="total">  211.36   33.21</time>
   <dipole>
    <v name="dipole">      0.00000000       0.00000000       0.07925220 </v>
    <i name="Tr[quadrupol]">  -7286.06401637 </i>
    <i name="Echarged">      0.00000000 </i>
    <i name="Edipol_quadrupol">      0.00000000 </i>
    <i name="Eion">      0.00000000 </i>
   </dipole>
   <energy>
    <i name="e_fr_energy">   -502.47770172 </i>
    <i name="e_wo_entrp">   -502.50873408 </i>
    <i name="e_0_energy">   -502.48804584 </i>
   </energy>
  </scstep>
  <scstep>
   <time name="dav">  184.39   26.68</time>
   <time name="total">  210.77   33.31</time>
   <dipole>
    <v name="dipole">      0.00000000       0.00000000       0.22010294 </v>
    <i name="Tr[quadrupol]">  -7288.88094097 </i>
    <i name="Echarged">      0.00000000 </i>
    <i name="Edipol_quadrupol">      0.00000000 </i>
    <i name="Eion">      0.00000000 </i>
   </dipole>
   <energy>
    <i name="e_fr_energy">   -505.00267654 </i>
    <i name="e_wo_entrp">   -505.00460632 </i>
    <i name="e_0_energy">   -505.00331980 </i>
   </energy>
  </scstep>
  <scstep>
   <time name="dav">  176.16   25.41</time>
   <time name="total">  201.03   31.90</time>
   <dipole>
    <v name="dipole">      0.00000000       0.00000000       0.17918818 </v>
    <i name="Tr[quadrupol]">  -7292.33694994 </i>
    <i name="Echarged">      0.00000000 </i>
    <i name="Edipol_quadrupol">      0.00000000 </i>
    <i name="Eion">      0.00000000 </i>
   </dipole>
   <energy>
    <i name="e_fr_energy">   -507.60874224 </i>
    <i name="e_wo_entrp">   -507.55448941 </i>
    <i name="e_0_energy">   -507.59065796 </i>
   </energy>
  </scstep>
  <scstep>
   <time name="dav">  177.61   25.49</time>
   <time name="total">  202.40   31.99</time>
   <dipole>
    <v name="dipole">      0.00000000       0.00000000       0.14385303 </v>
    <i name="Tr[quadrupol]">  -7293.26258073 </i>
    <i name="Echarged">      0.00000000 </i>
    <i name="Edipol_quadrupol">      0.00000000 </i>
    <i name="Eion">      0.00000000 </i>
   </dipole>
   <energy>
    <i name="e_fr_energy">   -508.74834861 </i>
    <i name="e_wo_entrp">   -508.72606651 </i>
    <i name="e_0_energy">   -508.74092124 </i>
   </energy>
  </scstep>
  <scstep>
   <time name="dav">  177.92   25.62</time>
   <time name="total">  203.57   32.13</time>
   <dipole>
    <v name="dipole">      0.00000000       0.00000000       0.16189521 </v>
    <i name="Tr[quadrupol]">  -7293.73231081 </i>
    <i name="Echarged">      0.00000000 </i>
    <i name="Edipol_quadrupol">      0.00000000 </i>
    <i name="Eion">      0.00000000 </i>
   </dipole>
   <energy>
    <i name="e_fr_energy">   -509.28319411 </i>
    <i name="e_wo_entrp">   -509.25762073 </i>
    <i name="e_0_energy">   -509.27466965 </i>
   </energy>
  </scstep>
  <scstep>
   <time name="dav">  185.75   26.83</time>
   <time name="total">  210.61   33.39</time>
   <dipole>
    <v name="dipole">      0.00000000       0.00000000       0.17278098 </v>
    <i name="Tr[quadrupol]">  -7293.75623724 </i>
    <i name="Echarged">      0.00000000 </i>
    <i name="Edipol_quadrupol">      0.00000000 </i>
    <i name="Eion">      0.00000000 </i>
   </dipole>
   <energy>
    <i name="e_fr_energy">   -510.07618858 </i>
    <i name="e_wo_entrp">   -510.07628605 </i>
    <i name="e_0_energy">   -510.07622107 </i>
   </energy>
  </scstep>
  <scstep>
   <time name="dav">  179.76   25.85</time>
   <time name="total">  205.76   32.43</time>
   <dipole>
    <v name="dipole">      0.00000000       0.00000000       0.17378258 </v>
    <i name="Tr[quadrupol]">  -7292.43153338 </i>
    <i name="Echarged">      0.00000000 </i>
    <i name="Edipol_quadrupol">      0.00000000 </i>
    <i name="Eion">      0.00000000 </i>
   </dipole>
   <energy>
    <i name="e_fr_energy">   -510.12894858 </i>
    <i name="e_wo_entrp">   -510.13213576 </i>
    <i name="e_0_energy">   -510.13001097 </i>
   </energy>
  </scstep>
  <scstep>
   <time name="dav">  178.61   25.65</time>
   <time name="total">  203.91   32.21</time>
   <dipole>
    <v name="dipole">      0.00000000       0.00000000       0.18235543 </v>
    <i name="Tr[quadrupol]">  -7292.25177817 </i>
    <i name="Echarged">      0.00000000 </i>
    <i name="Edipol_quadrupol">      0.00000000 </i>
    <i name="Eion">      0.00000000 </i>
   </dipole>
   <energy>
    <i name="e_fr_energy">   -510.17805356 </i>
    <i name="e_wo_entrp">   -510.19016750 </i>
    <i name="e_0_energy">   -510.18209154 </i>
   </energy>
  </scstep>
  <scstep>
   <time name="dav">  178.15   25.65</time>
   <time name="total">  204.20   32.43</time>
   <dipole>
    <v name="dipole">      0.00000000       0.00000000       0.19094367 </v>
    <i name="Tr[quadrupol]">  -7292.09418763 </i>
    <i name="Echarged">      0.00000000 </i>
    <i name="Edipol_quadrupol">      0.00000000 </i>
    <i name="Eion">      0.00000000 </i>
   </dipole>
   <energy>
    <i name="e_fr_energy">   -510.24650490 </i>
    <i name="e_wo_entrp">   -510.26076233 </i>
    <i name="e_0_energy">   -510.25125738 </i>
   </energy>
  </scstep>
  <scstep>
   <time name="dav">  182.92   26.30</time>
   <time name="total">  208.87   32.84</time>
   <dipole>
    <v name="dipole">      0.00000000       0.00000000       0.17516664 </v>
    <i name="Tr[quadrupol]">  -7292.37384253 </i>
    <i name="Echarged">      0.00000000 </i>
    <i name="Edipol_quadrupol">      0.00000000 </i>
    <i name="Eion">      0.00000000 </i>
   </dipole>
   <energy>
    <i name="e_fr_energy">   -510.38739439 </i>
    <i name="e_wo_entrp">   -510.40626315 </i>
    <i name="e_0_energy">   -510.39368397 </i>
   </energy>
  </scstep>
  <scstep>
   <time name="dav">  187.98   26.97</time>
   <time name="total">  214.47   33.57</time>
   <dipole>
    <v name="dipole">      0.00000000       0.00000000       0.15702538 </v>
    <i name="Tr[quadrupol]">  -7292.14550891 </i>
    <i name="Echarged">      0.00000000 </i>
    <i name="Edipol_quadrupol">      0.00000000 </i>
    <i name="Eion">      0.00000000 </i>
   </dipole>
   <energy>
    <i name="e_fr_energy">   -510.78541587 </i>
    <i name="e_wo_entrp">   -510.81221834 </i>
    <i name="e_0_energy">   -510.79435003 </i>
   </energy>
  </scstep>
  <scstep>
   <time name="dav">  178.60   25.67</time>
   <time name="total">  204.78   32.23</time>
   <dipole>
    <v name="dipole">      0.00000000       0.00000000       0.15357618 </v>
    <i name="Tr[quadrupol]">  -7291.65464600 </i>
    <i name="Echarged">      0.00000000 </i>
    <i name="Edipol_quadrupol">      0.00000000 </i>
    <i name="Eion">      0.00000000 </i>
   </dipole>
   <energy>
    <i name="e_fr_energy">   -511.08434064 </i>
    <i name="e_wo_entrp">   -511.11028539 </i>
    <i name="e_0_energy">   -511.09298889 </i>
   </energy>
  </scstep>
  <scstep>
   <time name="dav">  181.39   26.05</time>
   <time name="total">  206.89   32.62</time>
   <dipole>
    <v name="dipole">      0.00000000       0.00000000       0.14815883 </v>
    <i name="Tr[quadrupol]">  -7291.57134593 </i>
    <i name="Echarged">      0.00000000 </i>
    <i name="Edipol_quadrupol">      0.00000000 </i>
    <i name="Eion">      0.00000000 </i>
   </dipole>
   <energy>
    <i name="e_fr_energy">   -511.23685769 </i>
    <i name="e_wo_entrp">   -511.25746939 </i>
    <i name="e_0_energy">   -511.24372826 </i>
   </energy>
  </scstep>
  <scstep>
   <time name="dav">  170.49   24.45</time>
   <time name="total">  196.74   31.04</time>
   <dipole>
    <v name="dipole">      0.00000000       0.00000000       0.14505493 </v>
    <i name="Tr[quadrupol]">  -7291.81934233 </i>
    <i name="Echarged">      0.00000000 </i>
    <i name="Edipol_quadrupol">      0.00000000 </i>
    <i name="Eion">      0.00000000 </i>
   </dipole>
   <energy>
    <i name="e_fr_energy">   -511.32040279 </i>
    <i name="e_wo_entrp">   -511.34100583 </i>
    <i name="e_0_energy">   -511.32727047 </i>
   </energy>
  </scstep>
  <scstep>
   <time name="dav">  187.47   26.90</time>
   <time name="total">  214.03   33.52</time>
   <dipole>
    <v name="dipole">      0.00000000       0.00000000       0.15910842 </v>
    <i name="Tr[quadrupol]">  -7291.95198042 </i>
    <i name="Echarged">      0.00000000 </i>
    <i name="Edipol_quadrupol">      0.00000000 </i>
    <i name="Eion">      0.00000000 </i>
   </dipole>
   <energy>
    <i name="e_fr_energy">   -511.46665579 </i>
    <i name="e_wo_entrp">   -511.48467577 </i>
    <i name="e_0_energy">   -511.47266245 </i>
   </energy>
  </scstep>
  <scstep>
   <time name="dav">  184.02   26.50</time>
   <time name="total">  209.81   33.14</time>
   <dipole>
    <v name="dipole">      0.00000000       0.00000000       0.15968451 </v>
    <i name="Tr[quadrupol]">  -7292.02996770 </i>
    <i name="Echarged">      0.00000000 </i>
    <i name="Edipol_quadrupol">      0.00000000 </i>
    <i name="Eion">      0.00000000 </i>
   </dipole>
   <energy>
    <i name="e_fr_energy">   -511.56453271 </i>
    <i name="e_wo_entrp">   -511.58252394 </i>
    <i name="e_0_energy">   -511.57052979 </i>
   </energy>
  </scstep>
  <scstep>
   <time name="dav">  180.47   25.94</time>
   <time name="total">  206.86   32.58</time>
   <dipole>
    <v name="dipole">      0.00000000       0.00000000       0.16170286 </v>
    <i name="Tr[quadrupol]">  -7292.06098148 </i>
    <i name="Echarged">      0.00000000 </i>
    <i name="Edipol_quadrupol">      0.00000000 </i>
    <i name="Eion">      0.00000000 </i>
   </dipole>
   <energy>
    <i name="e_fr_energy">   -511.61654079 </i>
    <i name="e_wo_entrp">   -511.63550711 </i>
    <i name="e_0_energy">   -511.62286289 </i>
   </energy>
  </scstep>
  <scstep>
   <time name="dav">  186.83   27.01</time>
   <time name="total">  212.59   33.65</time>
   <dipole>
    <v name="dipole">      0.00000000       0.00000000       0.15647775 </v>
    <i name="Tr[quadrupol]">  -7292.00972806 </i>
    <i name="Echarged">      0.00000000 </i>
    <i name="Edipol_quadrupol">      0.00000000 </i>
    <i name="Eion">      0.00000000 </i>
   </dipole>
   <energy>
    <i name="e_fr_energy">   -511.75036049 </i>
    <i name="e_wo_entrp">   -511.77066033 </i>
    <i name="e_0_energy">   -511.75712711 </i>
   </energy>
  </scstep>
  <scstep>
   <time name="dav">  180.74   26.11</time>
   <time name="total">  206.46   32.77</time>
   <dipole>
    <v name="dipole">      0.00000000       0.00000000       0.15637024 </v>
    <i name="Tr[quadrupol]">  -7291.82564383 </i>
    <i name="Echarged">      0.00000000 </i>
    <i name="Edipol_quadrupol">      0.00000000 </i>
    <i name="Eion">      0.00000000 </i>
   </dipole>
   <energy>
    <i name="e_fr_energy">   -511.98839445 </i>
    <i name="e_wo_entrp">   -512.00811083 </i>
    <i name="e_0_energy">   -511.99496657 </i>
   </energy>
  </scstep>
  <scstep>
   <time name="dav">  179.88   25.87</time>
   <time name="total">  206.15   32.52</time>
   <dipole>
    <v name="dipole">      0.00000000       0.00000000       0.15280809 </v>
    <i name="Tr[quadrupol]">  -7291.99210865 </i>
    <i name="Echarged">      0.00000000 </i>
    <i name="Edipol_quadrupol">      0.00000000 </i>
    <i name="Eion">      0.00000000 </i>
   </dipole>
   <energy>
    <i name="e_fr_energy">   -512.12002634 </i>
    <i name="e_wo_entrp">   -512.13666062 </i>
    <i name="e_0_energy">   -512.12557110 </i>
   </energy>
  </scstep>
  <scstep>
   <time name="dav">  169.04   24.31</time>
   <time name="total">  195.83   31.00</time>
   <dipole>
    <v name="dipole">      0.00000000       0.00000000       0.15134077 </v>
    <i name="Tr[quadrupol]">  -7292.30755217 </i>
    <i name="Echarged">      0.00000000 </i>
    <i name="Edipol_quadrupol">      0.00000000 </i>
    <i name="Eion">      0.00000000 </i>
   </dipole>
   <energy>
    <i name="e_fr_energy">   -512.09423468 </i>
    <i name="e_wo_entrp">   -512.11241205 </i>
    <i name="e_0_energy">   -512.10029380 </i>
   </energy>
  </scstep>
  <scstep>
   <time name="dav">  186.13   26.78</time>
   <time name="total">  212.01   33.48</time>
   <dipole>
    <v name="dipole">      0.00000000       0.00000000       0.15557799 </v>
    <i name="Tr[quadrupol]">  -7292.30086382 </i>
    <i name="Echarged">      0.00000000 </i>
    <i name="Edipol_quadrupol">      0.00000000 </i>
    <i name="Eion">      0.00000000 </i>
   </dipole>
   <energy>
    <i name="e_fr_energy">   -512.11581676 </i>
    <i name="e_wo_entrp">   -512.13489533 </i>
    <i name="e_0_energy">   -512.12217628 </i>
   </energy>
  </scstep>
  <scstep>
   <time name="dav">  178.48   25.81</time>
   <time name="total">  205.28   32.53</time>
   <dipole>
    <v name="dipole">      0.00000000       0.00000000       0.15821789 </v>
    <i name="Tr[quadrupol]">  -7292.17646218 </i>
    <i name="Echarged">      0.00000000 </i>
    <i name="Edipol_quadrupol">      0.00000000 </i>
    <i name="Eion">      0.00000000 </i>
   </dipole>
   <energy>
    <i name="e_fr_energy">   -512.13751202 </i>
    <i name="e_wo_entrp">   -512.15670639 </i>
    <i name="e_0_energy">   -512.14391014 </i>
   </energy>
  </scstep>
  <scstep>
   <time name="dav">  176.58   25.33</time>
   <time name="total">  203.78   32.15</time>
   <dipole>
    <v name="dipole">      0.00000000       0.00000000       0.16115886 </v>
    <i name="Tr[quadrupol]">  -7292.13800885 </i>
    <i name="Echarged">      0.00000000 </i>
    <i name="Edipol_quadrupol">      0.00000000 </i>
    <i name="Eion">      0.00000000 </i>
   </dipole>
   <energy>
    <i name="e_fr_energy">   -512.14407440 </i>
    <i name="e_wo_entrp">   -512.16208735 </i>
    <i name="e_0_energy">   -512.15007872 </i>
   </energy>
  </scstep>
  <scstep>
   <time name="dav">  185.93   26.75</time>
   <time name="total">  211.99   33.50</time>
   <dipole>
    <v name="dipole">      0.00000000       0.00000000       0.15719250 </v>
    <i name="Tr[quadrupol]">  -7292.15129083 </i>
    <i name="Echarged">      0.00000000 </i>
    <i name="Edipol_quadrupol">      0.00000000 </i>
    <i name="Eion">      0.00000000 </i>
   </dipole>
   <energy>
    <i name="e_fr_energy">   -512.14280291 </i>
    <i name="e_wo_entrp">   -512.16018083 </i>
    <i name="e_0_energy">   -512.14859555 </i>
   </energy>
  </scstep>
  <scstep>
   <time name="dav">  180.56   25.93</time>
   <time name="total">  206.99   32.66</time>
   <dipole>
    <v name="dipole">      0.00000000       0.00000000       0.15916064 </v>
    <i name="Tr[quadrupol]">  -7292.12397772 </i>
    <i name="Echarged">      0.00000000 </i>
    <i name="Edipol_quadrupol">      0.00000000 </i>
    <i name="Eion">      0.00000000 </i>
   </dipole>
   <energy>
    <i name="e_fr_energy">   -512.14323752 </i>
    <i name="e_wo_entrp">   -512.16097668 </i>
    <i name="e_0_energy">   -512.14915057 </i>
   </energy>
  </scstep>
  <scstep>
   <time name="dav">  169.73   24.49</time>
   <time name="total">  196.71   31.28</time>
   <dipole>
    <v name="dipole">      0.00000000       0.00000000       0.15904926 </v>
    <i name="Tr[quadrupol]">  -7292.07128498 </i>
    <i name="Echarged">      0.00000000 </i>
    <i name="Edipol_quadrupol">      0.00000000 </i>
    <i name="Eion">      0.00000000 </i>
   </dipole>
   <energy>
    <i name="e_fr_energy">   -512.14501031 </i>
    <i name="e_wo_entrp">   -512.16312743 </i>
    <i name="e_0_energy">   -512.15104935 </i>
   </energy>
  </scstep>
  <scstep>
   <time name="dav">  179.76   25.93</time>
   <time name="total">  205.66   32.69</time>
   <dipole>
    <v name="dipole">      0.00000000       0.00000000       0.15736517 </v>
    <i name="Tr[quadrupol]">  -7292.05691723 </i>
    <i name="Echarged">      0.00000000 </i>
    <i name="Edipol_quadrupol">      0.00000000 </i>
    <i name="Eion">      0.00000000 </i>
   </dipole>
   <energy>
    <i name="e_fr_energy">   -512.14822834 </i>
    <i name="e_wo_entrp">   -512.16603415 </i>
    <i name="e_0_energy">   -512.15416361 </i>
   </energy>
  </scstep>
  <scstep>
   <time name="dav">  180.98   26.02</time>
   <time name="total">  207.94   32.83</time>
   <dipole>
    <v name="dipole">      0.00000000       0.00000000       0.15798159 </v>
    <i name="Tr[quadrupol]">  -7291.97036255 </i>
    <i name="Echarged">      0.00000000 </i>
    <i name="Edipol_quadrupol">      0.00000000 </i>
    <i name="Eion">      0.00000000 </i>
   </dipole>
   <energy>
    <i name="e_fr_energy">   -512.14858395 </i>
    <i name="e_wo_entrp">   -512.16677725 </i>
    <i name="e_0_energy">   -512.15464838 </i>
   </energy>
  </scstep>
  <scstep>
   <time name="dav">  168.13   24.18</time>
   <time name="total">  194.75   30.99</time>
   <dipole>
    <v name="dipole">      0.00000000       0.00000000       0.15799911 </v>
    <i name="Tr[quadrupol]">  -7291.92662287 </i>
    <i name="Echarged">      0.00000000 </i>
    <i name="Edipol_quadrupol">      0.00000000 </i>
    <i name="Eion">      0.00000000 </i>
   </dipole>
   <energy>
    <i name="e_fr_energy">   -512.14881698 </i>
    <i name="e_wo_entrp">   -512.16736463 </i>
    <i name="e_0_energy">   -512.15499953 </i>
   </energy>
  </scstep>
  <scstep>
   <time name="dav">  181.85   26.25</time>
   <time name="total">  207.86   33.07</time>
   <dipole>
    <v name="dipole">      0.00000000       0.00000000       0.15644685 </v>
    <i name="Tr[quadrupol]">  -7291.93710385 </i>
    <i name="Echarged">      0.00000000 </i>
    <i name="Edipol_quadrupol">      0.00000000 </i>
    <i name="Eion">      0.00000000 </i>
   </dipole>
   <energy>
    <i name="e_fr_energy">   -512.14945715 </i>
    <i name="e_wo_entrp">   -512.16809306 </i>
    <i name="e_0_energy">   -512.15566912 </i>
   </energy>
  </scstep>
  <scstep>
   <time name="dav">  188.01   27.21</time>
   <time name="total">  214.86   34.05</time>
   <dipole>
    <v name="dipole">      0.00000000       0.00000000       0.15638566 </v>
    <i name="Tr[quadrupol]">  -7291.98832149 </i>
    <i name="Echarged">      0.00000000 </i>
    <i name="Edipol_quadrupol">      0.00000000 </i>
    <i name="Eion">      0.00000000 </i>
   </dipole>
   <energy>
    <i name="e_fr_energy">   -512.14956028 </i>
    <i name="e_wo_entrp">   -512.16827025 </i>
    <i name="e_0_energy">   -512.15579694 </i>
   </energy>
  </scstep>
  <scstep>
   <time name="dav">  181.59   26.06</time>
   <time name="total">  208.44   32.91</time>
   <dipole>
    <v name="dipole">      0.00000000       0.00000000       0.15564823 </v>
    <i name="Tr[quadrupol]">  -7292.01122449 </i>
    <i name="Echarged">      0.00000000 </i>
    <i name="Edipol_quadrupol">      0.00000000 </i>
    <i name="Eion">      0.00000000 </i>
   </dipole>
   <energy>
    <i name="e_fr_energy">   -512.14994864 </i>
    <i name="e_wo_entrp">   -512.16841682 </i>
    <i name="e_0_energy">   -512.15610470 </i>
   </energy>
  </scstep>
  <scstep>
   <time name="dav">  176.21   25.36</time>
   <time name="total">  203.66   32.28</time>
   <dipole>
    <v name="dipole">      0.00000000       0.00000000       0.15655408 </v>
    <i name="Tr[quadrupol]">  -7291.99509689 </i>
    <i name="Echarged">      0.00000000 </i>
    <i name="Edipol_quadrupol">      0.00000000 </i>
    <i name="Eion">      0.00000000 </i>
   </dipole>
   <energy>
    <i name="e_fr_energy">   -512.15003269 </i>
    <i name="e_wo_entrp">   -512.16851257 </i>
    <i name="e_0_energy">   -512.15619265 </i>
   </energy>
  </scstep>
  <scstep>
   <time name="dav">  186.69   26.98</time>
   <time name="total">  213.65   33.85</time>
   <dipole>
    <v name="dipole">      0.00000000       0.00000000       0.15676611 </v>
    <i name="Tr[quadrupol]">  -7291.98419874 </i>
    <i name="Echarged">      0.00000000 </i>
    <i name="Edipol_quadrupol">      0.00000000 </i>
    <i name="Eion">      0.00000000 </i>
   </dipole>
   <energy>
    <i name="e_fr_energy">   -512.15011833 </i>
    <i name="e_wo_entrp">   -512.16856533 </i>
    <i name="e_0_energy">   -512.15626733 </i>
   </energy>
  </scstep>
  <scstep>
   <time name="dav">  164.76   23.69</time>
   <time name="total">  191.69   30.58</time>
   <dipole>
    <v name="dipole">      0.00000000       0.00000000       0.15618224 </v>
    <i name="Tr[quadrupol]">  -7292.01341908 </i>
    <i name="Echarged">      0.00000000 </i>
    <i name="Edipol_quadrupol">      0.00000000 </i>
    <i name="Eion">      0.00000000 </i>
   </dipole>
   <energy>
    <i name="e_fr_energy">   -512.15023667 </i>
    <i name="e_wo_entrp">   -512.16856483 </i>
    <i name="e_0_energy">   -512.15634605 </i>
   </energy>
  </scstep>
  <scstep>
   <time name="dav">  122.19   20.17</time>
   <time name="total">  148.78   27.08</time>
   <dipole>
    <v name="dipole">      0.00000000       0.00000000       0.15642121 </v>
    <i name="Tr[quadrupol]">  -7292.01543784 </i>
    <i name="Echarged">      0.00000000 </i>
    <i name="Edipol_quadrupol">      0.00000000 </i>
    <i name="Eion">      0.00000000 </i>
   </dipole>
   <energy>
    <i name="e_fr_energy">   -512.15026390 </i>
    <i name="e_wo_entrp">   -512.16867807 </i>
    <i name="e_0_energy">   -512.15640196 </i>
   </energy>
  </scstep>
  <scstep>
   <time name="dav">  175.86   25.50</time>
   <time name="total">  202.78   32.36</time>
   <dipole>
    <v name="dipole">      0.00000000       0.00000000       0.15647380 </v>
    <i name="Tr[quadrupol]">  -7292.01608209 </i>
    <i name="Echarged">      0.00000000 </i>
    <i name="Edipol_quadrupol">      0.00000000 </i>
    <i name="Eion">      0.00000000 </i>
   </dipole>
   <energy>
    <i name="e_fr_energy">   -512.15027911 </i>
    <i name="e_wo_entrp">   -512.16870061 </i>
    <i name="e_0_energy">   -512.15641961 </i>
   </energy>
  </scstep>
  <scstep>
   <time name="dav">   93.14   15.95</time>
   <time name="total">  120.08   22.84</time>
   <dipole>
    <v name="dipole">      0.00000000       0.00000000       0.15642634 </v>
    <i name="Tr[quadrupol]">  -7292.01415913 </i>
    <i name="Echarged">      0.00000000 </i>
    <i name="Edipol_quadrupol">      0.00000000 </i>
    <i name="Eion">      0.00000000 </i>
   </dipole>
   <energy>
    <i name="e_fr_energy">   -512.15029701 </i>
    <i name="e_wo_entrp">   -512.16871873 </i>
    <i name="e_0_energy">   -512.15643758 </i>
   </energy>
  </scstep>
  <scstep>
   <time name="dav">   71.38   14.98</time>
   <time name="total">   98.34   21.83</time>
   <dipole>
    <v name="dipole">      0.00000000       0.00000000       0.15593733 </v>
    <i name="Tr[quadrupol]">  -7292.01274777 </i>
    <i name="Echarged">      0.00000000 </i>
    <i name="Edipol_quadrupol">      0.00000000 </i>
    <i name="Eion">      0.00000000 </i>
   </dipole>
   <energy>
    <i name="e_fr_energy">   -512.15031053 </i>
    <i name="e_wo_entrp">   -512.16867244 </i>
    <i name="e_0_energy">   -512.15643117 </i>
   </energy>
  </scstep>
  <scstep>
   <time name="dav">  142.52   21.45</time>
   <time name="total">  170.03   28.44</time>
   <dipole>
    <v name="dipole">      0.00000000       0.00000000       0.15598596 </v>
    <i name="Tr[quadrupol]">  -7292.01147681 </i>
    <i name="Echarged">      0.00000000 </i>
    <i name="Edipol_quadrupol">      0.00000000 </i>
    <i name="Eion">      0.00000000 </i>
   </dipole>
   <energy>
    <i name="e_fr_energy">   -512.15032823 </i>
    <i name="e_wo_entrp">   -512.16877662 </i>
    <i name="e_0_energy">   -512.15647770 </i>
   </energy>
  </scstep>
  <scstep>
   <time name="dav">   83.75   15.48</time>
   <time name="total">  104.94   21.02</time>
   <dipole>
    <v name="dipole">      0.00000000       0.00000000       0.15608657 </v>
    <i name="Tr[quadrupol]">  -7292.03325201 </i>
    <i name="Echarged">      0.00000000 </i>
    <i name="Edipol_quadrupol">      0.00000000 </i>
    <i name="Eion">      0.00000000 </i>
   </dipole>
   <energy>
    <i name="alphaZ">   1869.11479793 </i>
    <i name="ewald"> 212631.97307209 </i>
    <i name="hartreedc">-264350.06323240 </i>
    <i name="XCdc">   1005.39173226 </i>
    <i name="pawpsdc">  56369.07251559 </i>
    <i name="pawaedc"> -57504.16566745 </i>
    <i name="eentropy">      0.01845197 </i>
    <i name="bandstr">  -4387.07587564 </i>
    <i name="atom">  53853.58386974 </i>
    <i name="e_fr_energy">   -512.15033590 </i>
    <i name="e_wo_entrp">   -512.16878787 </i>
    <i name="e_0_energy">   -512.15648656 </i>
   </energy>
  </scstep>
  <structure>
   <crystal>
    <varray name="basis" >
     <v>       8.53269958       0.00000000       0.00000000 </v>
     <v>      -0.00051933       8.49699972       0.00000000 </v>
     <v>       0.00000000       0.00000000      23.59499931 </v>
    </varray>
    <i name="volume">   1710.69280467 </i>
    <varray name="rec_basis" >
     <v>       0.11719620       0.00000716       0.00000000 </v>
     <v>       0.00000000       0.11768860       0.00000000 </v>
     <v>       0.00000000       0.00000000       0.04238186 </v>
    </varray>
   </crystal>
   <varray name="positions" >
    <v>       0.00086000       0.99993000       0.24271000 </v>
    <v>       0.16589957       0.16471079       0.30323101 </v>
    <v>       0.50544035       0.16970429       0.30604542 </v>
    <v>       0.66822000       0.00107000       0.24272000 </v>
    <v>       0.83417243       0.16743432       0.30394797 </v>
    <v>       0.00044000       0.33497000       0.24240000 </v>
    <v>       0.16685214       0.50206384       0.30400934 </v>
    <v>       0.33469000       0.33305000       0.24267000 </v>
    <v>       0.49980869       0.49742802       0.30372178 </v>
    <v>       0.83502648       0.50420770       0.30217990 </v>
    <v>       0.16863847       0.83457814       0.30501553 </v>
    <v>       0.33342000       0.66555000       0.24261000 </v>
    <v>       0.83648674       0.83311478       0.30363590 </v>
    <v>       0.00064000       0.00119000       0.00199000 </v>
    <v>       0.99637837       0.00459563       0.36160297 </v>
    <v>       0.16843000       0.16962000       0.06269000 </v>
    <v>       0.33460000       0.00297000       0.00254000 </v>
    <v>       0.33708720       0.00653675       0.36195768 </v>
    <v>       0.50463000       0.16850000       0.06120000 </v>
    <v>       0.83272000       0.16670000       0.06193000 </v>
    <v>       0.00004000       0.33467000       0.00213000 </v>
    <v>       0.99857738       0.33186373       0.36006574 </v>
    <v>       0.16757000       0.49895000       0.06268000 </v>
    <v>       0.50099000       0.49896000       0.06206000 </v>
    <v>       0.83393000       0.50234000       0.06235000 </v>
    <v>       0.00121000       0.66785000       0.00188000 </v>
    <v>       0.99786624       0.66609651       0.36044313 </v>
    <v>       0.16792000       0.83462000       0.06228000 </v>
    <v>       0.33437000       0.66664000       0.00225000 </v>
    <v>       0.34005745       0.66315868       0.36175193 </v>
    <v>       0.50152000       0.83563000       0.06217000 </v>
    <v>       0.66753000       0.66705000       0.00175000 </v>
    <v>       0.66339310       0.66459610       0.36034303 </v>
    <v>       0.83293000       0.83584000       0.06235000 </v>
    <v>       0.00121000       0.00098000       0.12225000 </v>
    <v>       0.16700000       0.16811000       0.18239000 </v>
    <v>       0.33470000       0.00227000       0.12192000 </v>
    <v>       0.50174000       0.16716000       0.18263000 </v>
    <v>       0.83421000       0.16639000       0.18283000 </v>
    <v>       0.16964000       0.49868000       0.18209000 </v>
    <v>       0.50219000       0.50081000       0.18317000 </v>
    <v>       0.66741000       0.33395000       0.12233000 </v>
    <v>       0.83134000       0.50253000       0.18283000 </v>
    <v>       0.00132000       0.66795000       0.12253000 </v>
    <v>       0.16898000       0.83509000       0.18243000 </v>
    <v>       0.33446000       0.66703000       0.12223000 </v>
    <v>       0.49971000       0.83538000       0.18278000 </v>
    <v>       0.66698000       0.66840000       0.12259000 </v>
    <v>       0.83488000       0.83403000       0.18294000 </v>
    <v>       0.33558000       0.99863000       0.24353000 </v>
    <v>       0.66801000       0.33262000       0.24229000 </v>
    <v>       0.00448000       0.66739000       0.24217000 </v>
    <v>       0.49661475       0.83343711       0.30116455 </v>
    <v>       0.66521000       0.67351000       0.24327000 </v>
    <v>       0.66620000       0.99680000       0.00000000 </v>
    <v>       0.66737432       0.98761411       0.36400103 </v>
    <v>       0.33213000       0.33386000       0.00135000 </v>
    <v>       0.32276710       0.33243764       0.36515367 </v>
    <v>       0.67040000       0.33673000       0.00321000 </v>
    <v>       0.67730008       0.34335154       0.36693267 </v>
    <v>       0.66728000       0.99998000       0.12246000 </v>
    <v>       0.99806000       0.33495000       0.12235000 </v>
    <v>       0.33675000       0.33238000       0.12261000 </v>
    <v>       0.50544000       0.16970000       0.42000000 </v>
   </varray>
  </structure>
  <varray name="forces" >
   <v>       0.02418923      -0.10684072      -0.17640555 </v>
   <v>      -0.03741905       0.09090729      -0.03656066 </v>
   <v>      -0.08663792      -0.04257801      -0.98126190 </v>
   <v>       0.04452872       0.03284586       0.02309739 </v>
   <v>      -0.01823627       0.02490152      -0.00445708 </v>
   <v>       0.03104055       0.00024430      -0.16117517 </v>
   <v>       0.00327423      -0.01652967      -0.01612237 </v>
   <v>      -0.00364794      -0.04471943       0.02706064 </v>
   <v>       0.04037728      -0.02327876      -0.03640275 </v>
   <v>      -0.03057607      -0.00899155       0.00209367 </v>
   <v>       0.04491121       0.05358556       0.02349408 </v>
   <v>      -0.17626621      -0.07066302      -0.20221574 </v>
   <v>      -0.04197445       0.01575368      -0.03911835 </v>
   <v>       0.02336067      -0.04663324       0.24764593 </v>
   <v>       0.02894997      -0.00902412       0.00281413 </v>
   <v>      -0.33158266      -0.28247704       0.01007693 </v>
   <v>      -0.04012748      -0.02718025       0.38567420 </v>
   <v>      -1.46701664      -1.51394583      -1.16054081 </v>
   <v>      -0.20559227      -0.16307376       0.61294953 </v>
   <v>       0.44169263       0.15166773       0.22394706 </v>
   <v>      -0.07507980       0.01111321       0.39450281 </v>
   <v>       0.02900918       0.00035909       0.04138201 </v>
   <v>      -0.26386894       0.31541059       0.00886610 </v>
   <v>       0.12016135       0.48448813       0.22182440 </v>
   <v>       0.14945595       0.13268862      -0.06244568 </v>
   <v>       0.04472511       0.00950302       0.11807795 </v>
   <v>       0.01566834      -0.01538186       0.02150719 </v>
   <v>      -0.01869497       0.00851035      -0.34767016 </v>
   <v>      -0.10722850       0.01304913       0.24525495 </v>
   <v>      -0.00770215       0.03382322      -0.03214045 </v>
   <v>      -0.28838346      -0.36188258       0.02306450 </v>
   <v>       0.00025592      -0.07274541       0.40647861 </v>
   <v>      -0.00712182       0.06039516      -0.00547297 </v>
   <v>       0.36375475      -0.34915402       0.01716809 </v>
   <v>       0.01205364       0.11958476      -0.04603382 </v>
   <v>       0.00289827      -0.00181591       0.06737312 </v>
   <v>       0.06472895       0.04475692       0.02412431 </v>
   <v>      -0.03523933      -0.03243180       0.26832279 </v>
   <v>       0.00021637       0.02104354       0.17674045 </v>
   <v>      -0.02373554      -0.00374286       0.19380127 </v>
   <v>       0.03890914       0.02265533       0.20508231 </v>
   <v>       0.04832413       0.01188278      -0.02170457 </v>
   <v>       0.03207208       0.03850186       0.14148333 </v>
   <v>      -0.05906691      -0.08246370      -0.08494955 </v>
   <v>       0.06319946       0.08309927       0.13724053 </v>
   <v>       0.11609375      -0.00149735      -0.05372389 </v>
   <v>      -0.00015140      -0.00637148      -0.01477791 </v>
   <v>      -0.07875151      -0.08013053       0.03510987 </v>
   <v>      -0.00544134      -0.04692803       0.18494922 </v>
   <v>       0.10017536      -0.04709839      -0.04754616 </v>
   <v>      -0.00427983      -0.03585293      -0.06949820 </v>
   <v>       0.05770732       0.01798997      -0.32814129 </v>
   <v>       0.05044540       0.10899506       0.19584326 </v>
   <v>      -0.13977530       0.11991014      -0.08884797 </v>
   <v>       0.06815517       0.42535568      -0.80704914 </v>
   <v>       1.52583530      -1.49716129      -1.33960537 </v>
   <v>       0.32840122       0.01216928      -0.67538695 </v>
   <v>      -1.49915619       1.53786828      -1.30215299 </v>
   <v>      -0.29932077      -0.35521853      -0.27806018 </v>
   <v>       1.62122740       1.64183536      -1.37904713 </v>
   <v>      -0.09421571       0.16584125      -0.36790856 </v>
   <v>      -0.04979879      -0.03971981      -0.06577564 </v>
   <v>       0.09413383      -0.07689113      -0.49712998 </v>
   <v>      -0.13384266      -0.34831294       6.04227835 </v>
  </varray>
  <varray name="stress" >
   <v>     -10.91576945       0.55294329       0.32627050 </v>
   <v>       0.55294355     -11.33358537      -0.13701655 </v>
   <v>       0.32627021      -0.13701642       4.89190250 </v>
  </varray>
  <energy>
   <i name="e_fr_energy">   -512.15033590 </i>
   <i name="e_wo_entrp">   -512.16878787 </i>
   <i name="e_0_energy">   -512.15648656 </i>
  </energy>
  <time name="totalsc">10963.10 1761.41</time>
 </calculation>
 <calculation>
  <scstep>
   <time name="dav">  152.14   21.85</time>
   <time name="total">  176.64   28.33</time>
   <dipole>
    <v name="dipole">      0.00000000       0.00000000       0.15602284 </v>
    <i name="Tr[quadrupol]">  -7285.51502963 </i>
    <i name="Echarged">      0.00000000 </i>
    <i name="Edipol_quadrupol">      0.00000000 </i>
    <i name="Eion">      0.00000000 </i>
   </dipole>
   <energy>
    <i name="alphaZ">   1870.42853566 </i>
    <i name="ewald"> 212016.59709708 </i>
    <i name="hartreedc">-263747.85360838 </i>
    <i name="XCdc">   1004.95407967 </i>
    <i name="pawpsdc">  56369.26499622 </i>
    <i name="pawaedc"> -57504.36264919 </i>
    <i name="eentropy">      0.01749535 </i>
    <i name="bandstr">  -4365.10566558 </i>
    <i name="atom">  53853.58386974 </i>
    <i name="e_fr_energy">   -502.47584943 </i>
    <i name="e_wo_entrp">   -502.49334478 </i>
    <i name="e_0_energy">   -502.48168121 </i>
   </energy>
  </scstep>
  <scstep>
   <time name="dav">  165.61   23.94</time>
   <time name="total">  191.63   30.53</time>
   <dipole>
    <v name="dipole">      0.00000000       0.00000000      -0.35433312 </v>
    <i name="Tr[quadrupol]">  -7286.15459043 </i>
    <i name="Echarged">      0.00000000 </i>
    <i name="Edipol_quadrupol">      0.00000000 </i>
    <i name="Eion">      0.00000000 </i>
   </dipole>
   <energy>
    <i name="e_fr_energy">   -518.81048376 </i>
    <i name="e_wo_entrp">   -518.83617650 </i>
    <i name="e_0_energy">   -518.81904800 </i>
   </energy>
  </scstep>
  <scstep>
   <time name="dav">  192.30   27.61</time>
   <time name="total">  217.58   34.07</time>
   <dipole>
    <v name="dipole">      0.00000000       0.00000000       0.66783580 </v>
    <i name="Tr[quadrupol]">  -7286.77020955 </i>
    <i name="Echarged">      0.00000000 </i>
    <i name="Edipol_quadrupol">      0.00000000 </i>
    <i name="Eion">      0.00000000 </i>
   </dipole>
   <energy>
    <i name="e_fr_energy">   -523.13483486 </i>
    <i name="e_wo_entrp">   -523.14648225 </i>
    <i name="e_0_energy">   -523.13871732 </i>
   </energy>
  </scstep>
  <scstep>
   <time name="dav">  196.27   28.20</time>
   <time name="total">  220.71   34.66</time>
   <dipole>
    <v name="dipole">      0.00000000       0.00000000       0.01688425 </v>
    <i name="Tr[quadrupol]">  -7284.88044787 </i>
    <i name="Echarged">      0.00000000 </i>
    <i name="Edipol_quadrupol">      0.00000000 </i>
    <i name="Eion">      0.00000000 </i>
   </dipole>
   <energy>
    <i name="e_fr_energy">   -513.45818907 </i>
    <i name="e_wo_entrp">   -513.48685229 </i>
    <i name="e_0_energy">   -513.46774348 </i>
   </energy>
  </scstep>
  <scstep>
   <time name="dav">  161.85   23.24</time>
   <time name="total">  186.62   29.74</time>
   <dipole>
    <v name="dipole">      0.00000000       0.00000000       0.07963306 </v>
    <i name="Tr[quadrupol]">  -7285.69720297 </i>
    <i name="Echarged">      0.00000000 </i>
    <i name="Edipol_quadrupol">      0.00000000 </i>
    <i name="Eion">      0.00000000 </i>
   </dipole>
   <energy>
    <i name="e_fr_energy">   -513.28176536 </i>
    <i name="e_wo_entrp">   -513.29298446 </i>
    <i name="e_0_energy">   -513.28550506 </i>
   </energy>
  </scstep>
  <scstep>
   <time name="dav">  179.61   25.82</time>
[...]
       <r>   -38.4705     0.0000    42.0000 </r>
       <r>   -38.3003     0.0000    42.0000 </r>
       <r>   -38.1300     0.0000    42.0000 </r>
       <r>   -37.9598     0.0000    42.0000 </r>
       <r>   -37.7896     0.0000    42.0000 </r>
       <r>   -37.6193     0.0000    42.0000 </r>
       <r>   -37.4491     0.0000    42.0000 </r>
       <r>   -37.2789     0.0000    42.0000 </r>
       <r>   -37.1086     0.0000    42.0000 </r>
       <r>   -36.9384     0.0000    42.0000 </r>
       <r>   -36.7681     0.0000    42.0000 </r>
       <r>   -36.5979     0.0000    42.0000 </r>
       <r>   -36.4277     0.0000    42.0000 </r>
       <r>   -36.2574     0.0000    42.0000 </r>
       <r>   -36.0872     0.0000    42.0000 </r>
       <r>   -35.9169     0.0000    42.0000 </r>
       <r>   -35.7467     0.0000    42.0000 </r>
       <r>   -35.5765     0.0000    42.0000 </r>
       <r>   -35.4062     0.0000    42.0000 </r>
       <r>   -35.2360     0.0000    42.0000 </r>
       <r>   -35.0657     0.0000    42.0000 </r>
       <r>   -34.8955     0.0000    42.0000 </r>
       <r>   -34.7253     0.0000    42.0000 </r>
       <r>   -34.5550     0.0000    42.0000 </r>
       <r>   -34.3848     0.0000    42.0000 </r>
       <r>   -34.2145     0.0000    42.0000 </r>
       <r>   -34.0443     0.0000    42.0000 </r>
       <r>   -33.8741     0.0000    42.0000 </r>
       <r>   -33.7038     0.0000    42.0000 </r>
       <r>   -33.5336     0.0000    42.0000 </r>
       <r>   -33.3633     0.0000    42.0000 </r>
       <r>   -33.1931     0.0000    42.0000 </r>
       <r>   -33.0229     0.0000    42.0000 </r>
       <r>   -32.8526     0.0000    42.0000 </r>
       <r>   -32.6824     0.0000    42.0000 </r>
       <r>   -32.5122     0.0000    42.0000 </r>
       <r>   -32.3419     0.0000    42.0000 </r>
       <r>   -32.1717     0.0000    42.0000 </r>
       <r>   -32.0014     0.0000    42.0000 </r>
       <r>   -31.8312     0.0000    42.0000 </r>
       <r>   -31.6610     0.0000    42.0000 </r>
       <r>   -31.4907     0.0000    42.0000 </r>
       <r>   -31.3205     0.0000    42.0000 </r>
       <r>   -31.1502     0.0000    42.0000 </r>
       <r>   -30.9800     0.0000    42.0000 </r>
       <r>   -30.8098     0.0000    42.0000 </r>
       <r>   -30.6395     0.0000    42.0000 </r>
       <r>   -30.4693     0.0000    42.0000 </r>
       <r>   -30.2990     0.0000    42.0000 </r>
       <r>   -30.1288     0.0000    42.0000 </r>
       <r>   -29.9586     0.0000    42.0000 </r>
       <r>   -29.7883     0.0000    42.0000 </r>
       <r>   -29.6181     0.0000    42.0000 </r>
       <r>   -29.4478     0.0000    42.0000 </r>
       <r>   -29.2776     0.0000    42.0000 </r>
       <r>   -29.1074     0.0000    42.0000 </r>
       <r>   -28.9371     0.0000    42.0000 </r>
       <r>   -28.7669     0.0000    42.0000 </r>
       <r>   -28.5967     0.0000    42.0000 </r>
       <r>   -28.4264     0.0000    42.0000 </r>
       <r>   -28.2562     0.0000    42.0000 </r>
       <r>   -28.0859     0.0000    42.0000 </r>
       <r>   -27.9157     0.0000    42.0000 </r>
       <r>   -27.7455     0.0000    42.0000 </r>
       <r>   -27.5752     0.0000    42.0000 </r>
       <r>   -27.4050     0.0000    42.0000 </r>
       <r>   -27.2347     0.0000    42.0000 </r>
       <r>   -27.0645     0.0000    42.0000 </r>
       <r>   -26.8943     0.0000    42.0000 </r>
       <r>   -26.7240     0.0000    42.0000 </r>
       <r>   -26.5538     0.0000    42.0000 </r>
       <r>   -26.3835     0.0000    42.0000 </r>
       <r>   -26.2133     0.0000    42.0000 </r>
       <r>   -26.0431     0.0000    42.0000 </r>
       <r>   -25.8728     0.0000    42.0000 </r>
       <r>   -25.7026     0.0000    42.0000 </r>
       <r>   -25.5323     0.0000    42.0000 </r>
       <r>   -25.3621     0.0000    42.0000 </r>
       <r>   -25.1919     0.0000    42.0000 </r>
       <r>   -25.0216     0.0000    42.0000 </r>
       <r>   -24.8514     0.0000    42.0000 </r>
       <r>   -24.6811     0.0000    42.0000 </r>
       <r>   -24.5109     0.0000    42.0000 </r>
       <r>   -24.3407     0.0000    42.0000 </r>
       <r>   -24.1704     0.0000    42.0000 </r>
       <r>   -24.0002     0.0000    42.0000 </r>
       <r>   -23.8300     0.0000    42.0000 </r>
       <r>   -23.6597     0.0000    42.0000 </r>
       <r>   -23.4895     0.0000    42.0000 </r>
       <r>   -23.3192     0.0000    42.0000 </r>
       <r>   -23.1490     0.0000    42.0000 </r>
       <r>   -22.9788     0.0000    42.0000 </r>
       <r>   -22.8085     0.0000    42.0000 </r>
       <r>   -22.6383     0.0000    42.0000 </r>
       <r>   -22.4680     0.0000    42.0000 </r>
       <r>   -22.2978     0.0000    42.0000 </r>
       <r>   -22.1276     0.0000    42.0000 </r>
       <r>   -21.9573     0.0000    42.0000 </r>
       <r>   -21.7871     0.0000    42.0000 </r>
       <r>   -21.6168     0.0000    42.0000 </r>
       <r>   -21.4466     0.0000    42.0000 </r>
       <r>   -21.2764     0.0000    42.0000 </r>
       <r>   -21.1061     0.0000    42.0000 </r>
       <r>   -20.9359     0.0000    42.0000 </r>
       <r>   -20.7656     0.0000    42.0000 </r>
       <r>   -20.5954     0.0000    42.0000 </r>
       <r>   -20.4252     0.0000    42.0000 </r>
       <r>   -20.2549     0.0000    42.0000 </r>
       <r>   -20.0847     0.0000    42.0000 </r>
       <r>   -19.9145     0.0000    42.0000 </r>
       <r>   -19.7442     0.0000    42.0000 </r>
       <r>   -19.5740     0.0000    42.0000 </r>
       <r>   -19.4037     0.0000    42.0000 </r>
       <r>   -19.2335     0.0000    42.0000 </r>
       <r>   -19.0633     0.0000    42.0000 </r>
       <r>   -18.8930     0.0000    42.0000 </r>
       <r>   -18.7228     0.0000    42.0000 </r>
       <r>   -18.5525     0.0000    42.0000 </r>
       <r>   -18.3823     0.0000    42.0000 </r>
       <r>   -18.2121     0.0000    42.0000 </r>
       <r>   -18.0418     0.0000    42.0000 </r>
       <r>   -17.8716     0.0000    42.0000 </r>
       <r>   -17.7013     0.0000    42.0000 </r>
       <r>   -17.5311     0.0000    42.0000 </r>
       <r>   -17.3609     0.0000    42.0000 </r>
       <r>   -17.1906     0.0000    42.0000 </r>
       <r>   -17.0204     0.0000    42.0000 </r>
       <r>   -16.8501     0.0000    42.0000 </r>
       <r>   -16.6799    -0.0000    42.0000 </r>
       <r>   -16.5097    -0.0000    42.0000 </r>
       <r>   -16.3394    -0.0000    42.0000 </r>
       <r>   -16.1692    -0.0000    42.0000 </r>
       <r>   -15.9989    -0.0000    42.0000 </r>
       <r>   -15.8287    -0.0001    42.0000 </r>
       <r>   -15.6585    -0.0325    41.9945 </r>
       <r>   -15.4882    -0.7813    41.8615 </r>
       <r>   -15.3180     8.4559    43.3010 </r>
       <r>   -15.1478    20.9340    46.8648 </r>
       <r>   -14.9775     1.1129    47.0542 </r>
       <r>   -14.8073    -0.3153    47.0006 </r>
       <r>   -14.6370    -0.0032    47.0000 </r>
       <r>   -14.4668    -0.0000    47.0000 </r>
       <r>   -14.2966    -0.0000    47.0000 </r>
       <r>   -14.1263     0.0000    47.0000 </r>
       <r>   -13.9561     0.0000    47.0000 </r>
       <r>   -13.7858     0.0000    47.0000 </r>
       <r>   -13.6156     0.0000    47.0000 </r>
       <r>   -13.4454     0.0000    47.0000 </r>
       <r>   -13.2751     0.0000    47.0000 </r>
       <r>   -13.1049     0.0000    47.0000 </r>
       <r>   -12.9346     0.0000    47.0000 </r>
       <r>   -12.7644     0.0000    47.0000 </r>
       <r>   -12.5942     0.0000    47.0000 </r>
       <r>   -12.4239     0.0000    47.0000 </r>
       <r>   -12.2537     0.0000    47.0000 </r>
       <r>   -12.0834     0.0000    47.0000 </r>
       <r>   -11.9132     0.0000    47.0000 </r>
       <r>   -11.7430     0.0000    47.0000 </r>
       <r>   -11.5727     0.0000    47.0000 </r>
       <r>   -11.4025     0.0000    47.0000 </r>
       <r>   -11.2323     0.0000    47.0000 </r>
       <r>   -11.0620     0.0000    47.0000 </r>
       <r>   -10.8918     0.0000    47.0000 </r>
       <r>   -10.7215     0.0000    47.0000 </r>
       <r>   -10.5513     0.0000    47.0000 </r>
       <r>   -10.3811     0.0000    47.0000 </r>
       <r>   -10.2108     0.0000    47.0000 </r>
       <r>   -10.0406     0.0000    47.0000 </r>
       <r>    -9.8703     0.0000    47.0000 </r>
       <r>    -9.7001     0.0000    47.0000 </r>
       <r>    -9.5299     0.0000    47.0000 </r>
       <r>    -9.3596     0.0000    47.0000 </r>
       <r>    -9.1894     0.0000    47.0000 </r>
       <r>    -9.0191     0.0000    47.0000 </r>
       <r>    -8.8489     0.0000    47.0000 </r>
       <r>    -8.6787    -0.0000    47.0000 </r>
       <r>    -8.5084    -0.0000    47.0000 </r>
       <r>    -8.3382    -0.0000    47.0000 </r>
       <r>    -8.1679    -0.0000    47.0000 </r>
       <r>    -7.9977    -0.0000    47.0000 </r>
       <r>    -7.8275    -0.0002    47.0000 </r>
       <r>    -7.6572    -0.0397    46.9932 </r>
       <r>    -7.4870    -0.0243    46.9891 </r>
       <r>    -7.3167     3.9391    47.6597 </r>
       <r>    -7.1465     2.1569    48.0268 </r>
       <r>    -6.9763     0.3644    48.0889 </r>
       <r>    -6.8060     1.8577    48.4051 </r>
       <r>    -6.6358     1.0170    48.5783 </r>
       <r>    -6.4656     1.5873    48.8485 </r>
       <r>    -6.2953     2.4925    49.2728 </r>
       <r>    -6.1251     0.2835    49.3211 </r>
       <r>    -5.9548     1.8729    49.6399 </r>
       <r>    -5.7846     4.3918    50.3876 </r>
       <r>    -5.6144     3.2635    50.9432 </r>
       <r>    -5.4441     2.7388    51.4094 </r>
       <r>    -5.2739     3.7324    52.0448 </r>
       <r>    -5.1036     1.1648    52.2431 </r>
       <r>    -4.9334     4.4545    53.0014 </r>
       <r>    -4.7632     5.7723    53.9841 </r>
       <r>    -4.5929     3.0394    54.5015 </r>
       <r>    -4.4227     5.4949    55.4370 </r>
       <r>    -4.2524     3.4783    56.0291 </r>
       <r>    -4.0822     8.0360    57.3972 </r>
       <r>    -3.9120     7.5042    58.6747 </r>
       <r>    -3.7417     7.3733    59.9299 </r>
       <r>    -3.5715     6.3667    61.0138 </r>
       <r>    -3.4012     8.2491    62.4181 </r>
       <r>    -3.2310    12.3486    64.5203 </r>
       <r>    -3.0608    17.2976    67.4650 </r>
       <r>    -2.8905    19.3936    70.7666 </r>
       <r>    -2.7203    22.8423    74.6552 </r>
       <r>    -2.5501    18.0702    77.7315 </r>
       <r>    -2.3798    26.8061    82.2949 </r>
       <r>    -2.2096    32.6387    87.8513 </r>
       <r>    -2.0393    32.3694    93.3619 </r>
       <r>    -1.8691    32.4161    98.8804 </r>
       <r>    -1.6989    33.7505   104.6260 </r>
       <r>    -1.5286    37.0132   110.9271 </r>
       <r>    -1.3584    47.1474   118.9534 </r>
       <r>    -1.1881    52.0958   127.8222 </r>
       <r>    -1.0179    52.0527   136.6836 </r>
       <r>    -0.8477    51.7098   145.4866 </r>
       <r>    -0.6774    54.4842   154.7620 </r>
       <r>    -0.5072    61.9921   165.3155 </r>
       <r>    -0.3369    65.2468   176.4230 </r>
       <r>    -0.1667    66.3930   187.7257 </r>
       <r>     0.0035    59.7000   197.8890 </r>
       <r>     0.1738    48.5375   206.1520 </r>
       <r>     0.3440    40.6483   213.0719 </r>
       <r>     0.5143    34.8134   218.9986 </r>
       <r>     0.6845    28.5201   223.8538 </r>
       <r>     0.8547    30.1939   228.9940 </r>
       <r>     1.0250    34.1705   234.8111 </r>
       <r>     1.1952    46.1261   242.6636 </r>
       <r>     1.3655    54.5692   251.9534 </r>
       <r>     1.5357    56.0913   261.5024 </r>
       <r>     1.7059    65.0164   272.5707 </r>
       <r>     1.8762    72.6064   284.9312 </r>
       <r>     2.0464    72.2309   297.2277 </r>
       <r>     2.2166    85.5591   311.7932 </r>
       <r>     2.3869    93.0363   327.6316 </r>
       <r>     2.5571    98.1185   344.3353 </r>
       <r>     2.7274    85.6333   358.9134 </r>
       <r>     2.8976    62.2891   369.5175 </r>
       <r>     3.0678    33.8916   375.2871 </r>
       <r>     3.2381     4.8470   376.1123 </r>
       <r>     3.4083    -0.6279   376.0054 </r>
       <r>     3.5786    -0.0316   376.0000 </r>
       <r>     3.7488    -0.0001   376.0000 </r>
       <r>     3.9190    -0.0000   376.0000 </r>
       <r>     4.0893    -0.0000   376.0000 </r>
       <r>     4.2595     0.0000   376.0000 </r>
       <r>     4.4298     0.0000   376.0000 </r>
       <r>     4.6000     0.0000   376.0000 </r>
       <r>     4.7702     0.0000   376.0000 </r>
       <r>     4.9405     0.0000   376.0000 </r>
       <r>     5.1107     0.0000   376.0000 </r>
       <r>     5.2810     0.0000   376.0000 </r>
       <r>     5.4512     0.0000   376.0000 </r>
      </set>
     </set>
    </array>
   </total>
  </dos>
 </calculation>
 <structure name="finalpos" >
  <crystal>
   <varray name="basis" >
    <v>       8.53269958       0.00000000       0.00000000 </v>
    <v>      -0.00051933       8.49699972       0.00000000 </v>
    <v>       0.00000000       0.00000000      23.59499931 </v>
   </varray>
   <i name="volume">   1710.69280467 </i>
   <varray name="rec_basis" >
    <v>       0.11719620       0.00000716       0.00000000 </v>
    <v>       0.00000000       0.11768860       0.00000000 </v>
    <v>       0.00000000       0.00000000       0.04238186 </v>
   </varray>
  </crystal>
  <varray name="positions" >
   <v>       0.00086000       0.99993000       0.24271000 </v>
   <v>       0.16626769       0.16575644       0.30369500 </v>
   <v>       0.50120145       0.16676079       0.30764167 </v>
   <v>       0.66822000       0.00107000       0.24272000 </v>
   <v>       0.83374116       0.16946272       0.30381090 </v>
   <v>       0.00044000       0.33497000       0.24240000 </v>
   <v>       0.16640462       0.50254777       0.30362740 </v>
   <v>       0.33469000       0.33305000       0.24267000 </v>
   <v>       0.50156301       0.49715214       0.30349304 </v>
   <v>       0.83495085       0.50423917       0.30240659 </v>
   <v>       0.16761919       0.83424967       0.30449006 </v>
   <v>       0.33342000       0.66555000       0.24261000 </v>
   <v>       0.83724831       0.83226544       0.30305123 </v>
   <v>       0.00064000       0.00119000       0.00199000 </v>
   <v>       0.99696510       0.00589455       0.36147297 </v>
   <v>       0.16843000       0.16962000       0.06269000 </v>
   <v>       0.33460000       0.00297000       0.00254000 </v>
   <v>       0.33027751      -0.00186537       0.36272351 </v>
   <v>       0.50463000       0.16850000       0.06120000 </v>
   <v>       0.83272000       0.16670000       0.06193000 </v>
   <v>       0.00004000       0.33467000       0.00213000 </v>
   <v>       0.99914268       0.33280193       0.36059210 </v>
   <v>       0.16757000       0.49895000       0.06268000 </v>
   <v>       0.50099000       0.49896000       0.06206000 </v>
   <v>       0.83393000       0.50234000       0.06235000 </v>
   <v>       0.00121000       0.66785000       0.00188000 </v>
   <v>       0.99853816       0.66544501       0.36057215 </v>
   <v>       0.16792000       0.83462000       0.06228000 </v>
   <v>       0.33437000       0.66664000       0.00225000 </v>
   <v>       0.34066409       0.66409783       0.36146322 </v>
   <v>       0.50152000       0.83563000       0.06217000 </v>
   <v>       0.66753000       0.66705000       0.00175000 </v>
   <v>       0.66384397       0.66675293       0.36027299 </v>
   <v>       0.83293000       0.83584000       0.06235000 </v>
   <v>       0.00121000       0.00098000       0.12225000 </v>
   <v>       0.16700000       0.16811000       0.18239000 </v>
   <v>       0.33470000       0.00227000       0.12192000 </v>
   <v>       0.50174000       0.16716000       0.18263000 </v>
   <v>       0.83421000       0.16639000       0.18283000 </v>
   <v>       0.16964000       0.49868000       0.18209000 </v>
   <v>       0.50219000       0.50081000       0.18317000 </v>
   <v>       0.66741000       0.33395000       0.12233000 </v>
   <v>       0.83134000       0.50253000       0.18283000 </v>
   <v>       0.00132000       0.66795000       0.12253000 </v>
   <v>       0.16898000       0.83509000       0.18243000 </v>
   <v>       0.33446000       0.66703000       0.12223000 </v>
   <v>       0.49971000       0.83538000       0.18278000 </v>
   <v>       0.66698000       0.66840000       0.12259000 </v>
   <v>       0.83488000       0.83403000       0.18294000 </v>
   <v>       0.33558000       0.99863000       0.24353000 </v>
   <v>       0.66801000       0.33262000       0.24229000 </v>
   <v>       0.00448000       0.66739000       0.24217000 </v>
   <v>       0.49655519       0.83553756       0.30220330 </v>
   <v>       0.66521000       0.67351000       0.24327000 </v>
   <v>       0.66620000       0.99680000       0.00000000 </v>
   <v>       0.67593329       0.98953029       0.36299016 </v>
   <v>       0.33213000       0.33386000       0.00135000 </v>
   <v>       0.32407605       0.33930227       0.36512252 </v>
   <v>       0.67040000       0.33673000       0.00321000 </v>
   <v>       0.67646327       0.34272561       0.36667116 </v>
   <v>       0.66728000       0.99998000       0.12246000 </v>
   <v>       0.99806000       0.33495000       0.12235000 </v>
   <v>       0.33675000       0.33238000       0.12261000 </v>
   <v>       0.49908809       0.15936828       0.44487919 </v>
  </varray>
  <varray name="selective"  type="logical" >
   <v type="logical" >  F  F  F </v>
   <v type="logical" >  T  T  T </v>
   <v type="logical" >  T  T  T </v>
   <v type="logical" >  F  F  F </v>
   <v type="logical" >  T  T  T </v>
   <v type="logical" >  F  F  F </v>
   <v type="logical" >  T  T  T </v>
   <v type="logical" >  F  F  F </v>
   <v type="logical" >  T  T  T </v>
   <v type="logical" >  T  T  T </v>
   <v type="logical" >  T  T  T </v>
   <v type="logical" >  F  F  F </v>
   <v type="logical" >  T  T  T </v>
   <v type="logical" >  F  F  F </v>
   <v type="logical" >  T  T  T </v>
   <v type="logical" >  F  F  F </v>
   <v type="logical" >  F  F  F </v>
   <v type="logical" >  T  T  T </v>
   <v type="logical" >  F  F  F </v>
   <v type="logical" >  F  F  F </v>
   <v type="logical" >  F  F  F </v>
   <v type="logical" >  T  T  T </v>
   <v type="logical" >  F  F  F </v>
   <v type="logical" >  F  F  F </v>
   <v type="logical" >  F  F  F </v>
   <v type="logical" >  F  F  F </v>
   <v type="logical" >  T  T  T </v>
   <v type="logical" >  F  F  F </v>
   <v type="logical" >  F  F  F </v>
   <v type="logical" >  T  T  T </v>
   <v type="logical" >  F  F  F </v>
   <v type="logical" >  F  F  F </v>
   <v type="logical" >  T  T  T </v>
   <v type="logical" >  F  F  F </v>
   <v type="logical" >  F  F  F </v>
   <v type="logical" >  F  F  F </v>
   <v type="logical" >  F  F  F </v>
   <v type="logical" >  F  F  F </v>
   <v type="logical" >  F  F  F </v>
   <v type="logical" >  F  F  F </v>
   <v type="logical" >  F  F  F </v>
   <v type="logical" >  F  F  F </v>
   <v type="logical" >  F  F  F </v>
   <v type="logical" >  F  F  F </v>
   <v type="logical" >  F  F  F </v>
   <v type="logical" >  F  F  F </v>
   <v type="logical" >  F  F  F </v>
   <v type="logical" >  F  F  F </v>
   <v type="logical" >  F  F  F </v>
   <v type="logical" >  F  F  F </v>
   <v type="logical" >  F  F  F </v>
   <v type="logical" >  F  F  F </v>
   <v type="logical" >  T  T  T </v>
   <v type="logical" >  F  F  F </v>
   <v type="logical" >  F  F  F </v>
   <v type="logical" >  T  T  T </v>
   <v type="logical" >  F  F  F </v>
   <v type="logical" >  T  T  T </v>
   <v type="logical" >  F  F  F </v>
   <v type="logical" >  T  T  T </v>
   <v type="logical" >  F  F  F </v>
   <v type="logical" >  F  F  F </v>
   <v type="logical" >  F  F  F </v>
   <v type="logical" >  T  T  T </v>
  </varray>
  <nose>
   <v>      -3.00000000       0.00000000       0.00010000       0.00010000 </v>
  </nose>
 </structure>
</modeling>
