ni3al                                   
           1
     8.532700    0.000000    0.000000
    -0.000519    8.497000    0.000000
     0.000000    0.000000   23.594999
   Fe   Cr   Pb
    49    14     1
Direct configuration=     1
   0.00086000  0.99993000  0.24271000
   0.16589957  0.16471079  0.30323101
   0.50544035  0.16970429  0.30604542
   0.66822000  0.00107000  0.24272000
   0.83417243  0.16743432  0.30394797
   0.00044000  0.33497000  0.24240000
   0.16685214  0.50206384  0.30400934
   0.33469000  0.33305000  0.24267000
   0.49980869  0.49742802  0.30372178
   0.83502648  0.50420770  0.30217990
   0.16863847  0.83457814  0.30501553
   0.33342000  0.66555000  0.24261000
   0.83648674  0.83311478  0.30363590
   0.00064000  0.00119000  0.00199000
   0.99637837  0.00459563  0.36160297
   0.16843000  0.16962000  0.06269000
   0.33460000  0.00297000  0.00254000
   0.33708720  0.00653675  0.36195768
   0.50463000  0.16850000  0.06120000
   0.83272000  0.16670000  0.06193000
   0.00004000  0.33467000  0.00213000
   0.99857738  0.33186373  0.36006574
   0.16757000  0.49895000  0.06268000
   0.50099000  0.49896000  0.06206000
   0.83393000  0.50234000  0.06235000
   0.00121000  0.66785000  0.00188000
   0.99786624  0.66609651  0.36044313
   0.16792000  0.83462000  0.06228000
   0.33437000  0.66664000  0.00225000
   0.34005745  0.66315868  0.36175193
   0.50152000  0.83563000  0.06217000
   0.66753000  0.66705000  0.00175000
   0.66339310  0.66459610  0.36034303
   0.83293000  0.83584000  0.06235000
   0.00121000  0.00098000  0.12225000
   0.16700000  0.16811000  0.18239000
   0.33470000  0.00227000  0.12192000
   0.50174000  0.16716000  0.18263000
   0.83421000  0.16639000  0.18283000
   0.16964000  0.49868000  0.18209000
   0.50219000  0.50081000  0.18317000
   0.66741000  0.33395000  0.12233000
   0.83134000  0.50253000  0.18283000
   0.00132000  0.66795000  0.12253000
   0.16898000  0.83509000  0.18243000
   0.33446000  0.66703000  0.12223000
   0.49971000  0.83538000  0.18278000
   0.66698000  0.66840000  0.12259000
   0.83488000  0.83403000  0.18294000
   0.33558000  0.99863000  0.24353000
   0.66801000  0.33262000  0.24229000
   0.00448000  0.66739000  0.24217000
   0.49661475  0.83343711  0.30116455
   0.66521000  0.67351000  0.24327000
   0.66620000  0.99680000  0.00000000
   0.66737432  0.98761411  0.36400103
   0.33213000  0.33386000  0.00135000
   0.32276710  0.33243764  0.36515367
   0.67040000  0.33673000  0.00321000
   0.67730008  0.34335154  0.36693267
   0.66728000  0.99998000  0.12246000
   0.99806000  0.33495000  0.12235000
   0.33675000  0.33238000  0.12261000
   0.50544000  0.16970000  0.42000000
Direct configuration=     2
   0.00086000  0.99993000  0.24271000
   0.16568804  0.16522692  0.30315626
   0.50495049  0.16946255  0.30403912
   0.66822000  0.00107000  0.24272000
   0.83406933  0.16757570  0.30393886
   0.00044000  0.33497000  0.24240000
   0.16687065  0.50196999  0.30397637
   0.33469000  0.33305000  0.24267000
   0.50003697  0.49729585  0.30364735
   0.83485360  0.50415665  0.30218418
   0.16889241  0.83488237  0.30506356
   0.33342000  0.66555000  0.24261000
   0.83624943  0.83320422  0.30355592
   0.00064000  0.00119000  0.00199000
   0.99654205  0.00454440  0.36160873
   0.16843000  0.16962000  0.06269000
   0.33460000  0.00297000  0.00254000
   0.32879237 -0.00205884  0.35958482
   0.50463000  0.16850000  0.06120000
   0.83272000  0.16670000  0.06193000
   0.00004000  0.33467000  0.00213000
   0.99874140  0.33186577  0.36015036
   0.16757000  0.49895000  0.06268000
   0.50099000  0.49896000  0.06206000
   0.83393000  0.50234000  0.06235000
   0.00121000  0.66785000  0.00188000
   0.99795483  0.66600918  0.36048711
   0.16792000  0.83462000  0.06228000
   0.33437000  0.66664000  0.00225000
   0.34001392  0.66335072  0.36168622
   0.50152000  0.83563000  0.06217000
   0.66753000  0.66705000  0.00175000
   0.66335285  0.66493900  0.36033184
   0.83293000  0.83584000  0.06235000
   0.00121000  0.00098000  0.12225000
   0.16700000  0.16811000  0.18239000
   0.33470000  0.00227000  0.12192000
   0.50174000  0.16716000  0.18263000
   0.83421000  0.16639000  0.18283000
   0.16964000  0.49868000  0.18209000
   0.50219000  0.50081000  0.18317000
   0.66741000  0.33395000  0.12233000
   0.83134000  0.50253000  0.18283000
   0.00132000  0.66795000  0.12253000
   0.16898000  0.83509000  0.18243000
   0.33446000  0.66703000  0.12223000
   0.49971000  0.83538000  0.18278000
   0.66698000  0.66840000  0.12259000
   0.83488000  0.83403000  0.18294000
   0.33558000  0.99863000  0.24353000
   0.66801000  0.33262000  0.24229000
   0.00448000  0.66739000  0.24217000
   0.49690000  0.83405594  0.30156497
   0.66521000  0.67351000  0.24327000
   0.66620000  0.99680000  0.00000000
   0.67600066  0.97911381  0.36126205
   0.33213000  0.33386000  0.00135000
   0.31429161  0.34116906  0.36249127
   0.67040000  0.33673000  0.00321000
   0.68646683  0.35267325  0.36411305
   0.66728000  0.99998000  0.12246000
   0.99806000  0.33495000  0.12235000
   0.33675000  0.33238000  0.12261000
   0.50468315  0.16772241  0.43235412
Direct configuration=     3
   0.00086000  0.99993000  0.24271000
   0.16567803  0.16525135  0.30315272
   0.50492731  0.16945111  0.30394417
   0.66822000  0.00107000  0.24272000
   0.83406446  0.16758239  0.30393843
   0.00044000  0.33497000  0.24240000
   0.16687153  0.50196555  0.30397481
   0.33469000  0.33305000  0.24267000
   0.50004777  0.49728960  0.30364383
   0.83484542  0.50415424  0.30218438
   0.16890443  0.83489677  0.30506584
   0.33342000  0.66555000  0.24261000
   0.83623820  0.83320845  0.30355213
   0.00064000  0.00119000  0.00199000
   0.99654979  0.00454197  0.36160900
   0.16843000  0.16962000  0.06269000
   0.33460000  0.00297000  0.00254000
   0.32839981 -0.00246564  0.35947252
   0.50463000  0.16850000  0.06120000
   0.83272000  0.16670000  0.06193000
   0.00004000  0.33467000  0.00213000
   0.99874916  0.33186586  0.36015436
   0.16757000  0.49895000  0.06268000
   0.50099000  0.49896000  0.06206000
   0.83393000  0.50234000  0.06235000
   0.00121000  0.66785000  0.00188000
   0.99795902  0.66600505  0.36048919
   0.16792000  0.83462000  0.06228000
   0.33437000  0.66664000  0.00225000
   0.34001186  0.66335981  0.36168311
   0.50152000  0.83563000  0.06217000
   0.66753000  0.66705000  0.00175000
   0.66335095  0.66495523  0.36033131
   0.83293000  0.83584000  0.06235000
   0.00121000  0.00098000  0.12225000
   0.16700000  0.16811000  0.18239000
   0.33470000  0.00227000  0.12192000
   0.50174000  0.16716000  0.18263000
   0.83421000  0.16639000  0.18283000
   0.16964000  0.49868000  0.18209000
   0.50219000  0.50081000  0.18317000
   0.66741000  0.33395000  0.12233000
   0.83134000  0.50253000  0.18283000
   0.00132000  0.66795000  0.12253000
   0.16898000  0.83509000  0.18243000
   0.33446000  0.66703000  0.12223000
   0.49971000  0.83538000  0.18278000
   0.66698000  0.66840000  0.12259000
   0.83488000  0.83403000  0.18294000
   0.33558000  0.99863000  0.24353000
   0.66801000  0.33262000  0.24229000
   0.00448000  0.66739000  0.24217000
   0.49691350  0.83408523  0.30158392
   0.66521000  0.67351000  0.24327000
   0.66620000  0.99680000  0.00000000
   0.67640891  0.97871152  0.36113243
   0.33213000  0.33386000  0.00135000
   0.31389050  0.34158229  0.36236527
   0.67040000  0.33673000  0.00321000
   0.68690067  0.35311441  0.36397961
   0.66728000  0.99998000  0.12246000
   0.99806000  0.33495000  0.12235000
   0.33675000  0.33238000  0.12261000
   0.50464733  0.16762882  0.43293880
Direct configuration=     4
   0.00086000  0.99993000  0.24271000
   0.16511485  0.16521723  0.30291618
   0.50438399  0.16910631  0.30456611
   0.66822000  0.00107000  0.24272000
   0.83438675  0.16772201  0.30373435
   0.00044000  0.33497000  0.24240000
   0.16546484  0.50344030  0.30344779
   0.33469000  0.33305000  0.24267000
   0.50021005  0.49760198  0.30340056
   0.83627273  0.50554293  0.30169882
   0.16761110  0.83375919  0.30458027
   0.33342000  0.66555000  0.24261000
   0.83758406  0.83183159  0.30301776
   0.00064000  0.00119000  0.00199000
   0.99682006  0.00508506  0.36164442
   0.16843000  0.16962000  0.06269000
   0.33460000  0.00297000  0.00254000
   0.32885151 -0.00235448  0.36006517
   0.50463000  0.16850000  0.06120000
   0.83272000  0.16670000  0.06193000
   0.00004000  0.33467000  0.00213000
   0.99876437  0.33162278  0.36016636
   0.16757000  0.49895000  0.06268000
   0.50099000  0.49896000  0.06206000
   0.83393000  0.50234000  0.06235000
   0.00121000  0.66785000  0.00188000
   0.99779829  0.66573608  0.36047720
   0.16792000  0.83462000  0.06228000
   0.33437000  0.66664000  0.00225000
   0.34047697  0.66366308  0.36170097
   0.50152000  0.83563000  0.06217000
   0.66753000  0.66705000  0.00175000
   0.66307134  0.66516260  0.36023979
   0.83293000  0.83584000  0.06235000
   0.00121000  0.00098000  0.12225000
   0.16700000  0.16811000  0.18239000
   0.33470000  0.00227000  0.12192000
   0.50174000  0.16716000  0.18263000
   0.83421000  0.16639000  0.18283000
   0.16964000  0.49868000  0.18209000
   0.50219000  0.50081000  0.18317000
   0.66741000  0.33395000  0.12233000
   0.83134000  0.50253000  0.18283000
   0.00132000  0.66795000  0.12253000
   0.16898000  0.83509000  0.18243000
   0.33446000  0.66703000  0.12223000
   0.49971000  0.83538000  0.18278000
   0.66698000  0.66840000  0.12259000
   0.83488000  0.83403000  0.18294000
   0.33558000  0.99863000  0.24353000
   0.66801000  0.33262000  0.24229000
   0.00448000  0.66739000  0.24217000
   0.49706360  0.83418427  0.30165797
   0.66521000  0.67351000  0.24327000
   0.66620000  0.99680000  0.00000000
   0.67616759  0.98046738  0.36128117
   0.33213000  0.33386000  0.00135000
   0.31600033  0.34119611  0.36268137
   0.67040000  0.33673000  0.00321000
   0.68528113  0.35157657  0.36430907
   0.66728000  0.99998000  0.12246000
   0.99806000  0.33495000  0.12235000
   0.33675000  0.33238000  0.12261000
   0.50416420  0.16691477  0.43482506
Direct configuration=     5
   0.00086000  0.99993000  0.24271000
   0.16428636  0.16516703  0.30256821
   0.50358473  0.16859907  0.30548105
   0.66822000  0.00107000  0.24272000
   0.83486088  0.16792741  0.30343413
   0.00044000  0.33497000  0.24240000
   0.16339548  0.50560978  0.30267249
   0.33469000  0.33305000  0.24267000
   0.50044878  0.49806152  0.30304268
   0.83837242  0.50758581  0.30098450
   0.16570850  0.83208572  0.30386596
   0.33342000  0.66555000  0.24261000
   0.83956394  0.82980610  0.30223166
   0.00064000  0.00119000  0.00199000
   0.99721765  0.00588400  0.36169653
   0.16843000  0.16962000  0.06269000
   0.33460000  0.00297000  0.00254000
   0.32951600 -0.00219094  0.36093702
   0.50463000  0.16850000  0.06120000
   0.83272000  0.16670000  0.06193000
   0.00004000  0.33467000  0.00213000
   0.99878674  0.33126519  0.36018401
   0.16757000  0.49895000  0.06268000
   0.50099000  0.49896000  0.06206000
   0.83393000  0.50234000  0.06235000
   0.00121000  0.66785000  0.00188000
   0.99756183  0.66534042  0.36045956
   0.16792000  0.83462000  0.06228000
   0.33437000  0.66664000  0.00225000
   0.34116118  0.66410921  0.36172724
   0.50152000  0.83563000  0.06217000
   0.66753000  0.66705000  0.00175000
   0.66266002  0.66546765  0.36010515
   0.83293000  0.83584000  0.06235000
   0.00121000  0.00098000  0.12225000
   0.16700000  0.16811000  0.18239000
   0.33470000  0.00227000  0.12192000
   0.50174000  0.16716000  0.18263000
   0.83421000  0.16639000  0.18283000
   0.16964000  0.49868000  0.18209000
   0.50219000  0.50081000  0.18317000
   0.66741000  0.33395000  0.12233000
   0.83134000  0.50253000  0.18283000
   0.00132000  0.66795000  0.12253000
   0.16898000  0.83509000  0.18243000
   0.33446000  0.66703000  0.12223000
   0.49971000  0.83538000  0.18278000
   0.66698000  0.66840000  0.12259000
   0.83488000  0.83403000  0.18294000
   0.33558000  0.99863000  0.24353000
   0.66801000  0.33262000  0.24229000
   0.00448000  0.66739000  0.24217000
   0.49728441  0.83432996  0.30176690
   0.66521000  0.67351000  0.24327000
   0.66620000  0.99680000  0.00000000
   0.67581259  0.98305039  0.36149998
   0.33213000  0.33386000  0.00135000
   0.31910409  0.34062801  0.36314638
   0.67040000  0.33673000  0.00321000
   0.68289865  0.34931428  0.36479373
   0.66728000  0.99998000  0.12246000
   0.99806000  0.33495000  0.12235000
   0.33675000  0.33238000  0.12261000
   0.50345346  0.16586434  0.43759990
Direct configuration=     6
   0.00086000  0.99993000  0.24271000
   0.16494061  0.16531849  0.30276821
   0.50286772  0.16801320  0.30625146
   0.66822000  0.00107000  0.24272000
   0.83460741  0.16827843  0.30338853
   0.00044000  0.33497000  0.24240000
   0.16435148  0.50464161  0.30277228
   0.33469000  0.33305000  0.24267000
   0.50076491  0.49805054  0.30292118
   0.83745713  0.50666666  0.30109220
   0.16656276  0.83296975  0.30394737
   0.33342000  0.66555000  0.24261000
   0.83887356  0.83062834  0.30223539
   0.00064000  0.00119000  0.00199000
   0.99734072  0.00607960  0.36151320
   0.16843000  0.16962000  0.06269000
   0.33460000  0.00297000  0.00254000
   0.32935932 -0.00232088  0.36122398
   0.50463000  0.16850000  0.06120000
   0.83272000  0.16670000  0.06193000
   0.00004000  0.33467000  0.00213000
   0.99886396  0.33150779  0.36001299
   0.16757000  0.49895000  0.06268000
   0.50099000  0.49896000  0.06206000
   0.83393000  0.50234000  0.06235000
   0.00121000  0.66785000  0.00188000
   0.99756543  0.66523842  0.36085364
   0.16792000  0.83462000  0.06228000
   0.33437000  0.66664000  0.00225000
   0.34123189  0.66430774  0.36152661
   0.50152000  0.83563000  0.06217000
   0.66753000  0.66705000  0.00175000
   0.66289538  0.66561229  0.35989424
   0.83293000  0.83584000  0.06235000
   0.00121000  0.00098000  0.12225000
   0.16700000  0.16811000  0.18239000
   0.33470000  0.00227000  0.12192000
   0.50174000  0.16716000  0.18263000
   0.83421000  0.16639000  0.18283000
   0.16964000  0.49868000  0.18209000
   0.50219000  0.50081000  0.18317000
   0.66741000  0.33395000  0.12233000
   0.83134000  0.50253000  0.18283000
   0.00132000  0.66795000  0.12253000
   0.16898000  0.83509000  0.18243000
   0.33446000  0.66703000  0.12223000
   0.49971000  0.83538000  0.18278000
   0.66698000  0.66840000  0.12259000
   0.83488000  0.83403000  0.18294000
   0.33558000  0.99863000  0.24353000
   0.66801000  0.33262000  0.24229000
   0.00448000  0.66739000  0.24217000
   0.49699021  0.83474989  0.30186849
   0.66521000  0.67351000  0.24327000
   0.66620000  0.99680000  0.00000000
   0.67614161  0.98491849  0.36159478
   0.33213000  0.33386000  0.00135000
   0.32066127  0.34062836  0.36326749
   0.67040000  0.33673000  0.00321000
   0.68148236  0.34792946  0.36494944
   0.66728000  0.99998000  0.12246000
   0.99806000  0.33495000  0.12235000
   0.33675000  0.33238000  0.12261000
   0.50280462  0.16477281  0.43942669
Direct configuration=     7
   0.00086000  0.99993000  0.24271000
   0.16690336  0.16577285  0.30336822
   0.50071669  0.16625559  0.30856269
   0.66822000  0.00107000  0.24272000
   0.83384701  0.16933147  0.30325170
   0.00044000  0.33497000  0.24240000
   0.16721945  0.50173710  0.30307164
   0.33469000  0.33305000  0.24267000
   0.50171331  0.49801761  0.30255667
   0.83471125  0.50390922  0.30141531
   0.16912555  0.83562182  0.30419159
   0.33342000  0.66555000  0.24261000
   0.83680242  0.83309505  0.30224656
   0.00064000  0.00119000  0.00199000
   0.99770994  0.00666639  0.36096323
   0.16843000  0.16962000  0.06269000
   0.33460000  0.00297000  0.00254000
   0.32888927 -0.00271069  0.36208487
   0.50463000  0.16850000  0.06120000
   0.83272000  0.16670000  0.06193000
   0.00004000  0.33467000  0.00213000
   0.99909561  0.33223558  0.35949992
   0.16757000  0.49895000  0.06268000
   0.50099000  0.49896000  0.06206000
   0.83393000  0.50234000  0.06235000
   0.00121000  0.66785000  0.00188000
   0.99757623  0.66493245  0.36203588
   0.16792000  0.83462000  0.06228000
   0.33437000  0.66664000  0.00225000
   0.34144402  0.66490331  0.36092473
   0.50152000  0.83563000  0.06217000
   0.66753000  0.66705000  0.00175000
   0.66360146  0.66604622  0.35926151
   0.83293000  0.83584000  0.06235000
   0.00121000  0.00098000  0.12225000
   0.16700000  0.16811000  0.18239000
   0.33470000  0.00227000  0.12192000
   0.50174000  0.16716000  0.18263000
   0.83421000  0.16639000  0.18283000
   0.16964000  0.49868000  0.18209000
   0.50219000  0.50081000  0.18317000
   0.66741000  0.33395000  0.12233000
   0.83134000  0.50253000  0.18283000
   0.00132000  0.66795000  0.12253000
   0.16898000  0.83509000  0.18243000
   0.33446000  0.66703000  0.12223000
   0.49971000  0.83538000  0.18278000
   0.66698000  0.66840000  0.12259000
   0.83488000  0.83403000  0.18294000
   0.33558000  0.99863000  0.24353000
   0.66801000  0.33262000  0.24229000
   0.00448000  0.66739000  0.24217000
   0.49610759  0.83600967  0.30217325
   0.66521000  0.67351000  0.24327000
   0.66620000  0.99680000  0.00000000
   0.67712866  0.99052280  0.36187917
   0.33213000  0.33386000  0.00135000
   0.32533282  0.34062942  0.36363082
   0.67040000  0.33673000  0.00321000
   0.67723349  0.34377499  0.36541655
   0.66728000  0.99998000  0.12246000
   0.99806000  0.33495000  0.12235000
   0.33675000  0.33238000  0.12261000
   0.50085812  0.16149823  0.44490705
Direct configuration=     8
   0.00086000  0.99993000  0.24271000
   0.16613264  0.16559444  0.30313262
   0.50156134  0.16694575  0.30765514
   0.66822000  0.00107000  0.24272000
   0.83414560  0.16891797  0.30330543
   0.00044000  0.33497000  0.24240000
   0.16609328  0.50287762  0.30295409
   0.33469000  0.33305000  0.24267000
   0.50134090  0.49803054  0.30269981
   0.83578948  0.50499199  0.30128844
   0.16811922  0.83458042  0.30409570
   0.33342000  0.66555000  0.24261000
   0.83761570  0.83212644  0.30224217
   0.00064000  0.00119000  0.00199000
   0.99756496  0.00643597  0.36117919
   0.16843000  0.16962000  0.06269000
   0.33460000  0.00297000  0.00254000
   0.32907384 -0.00255762  0.36174682
   0.50463000  0.16850000  0.06120000
   0.83272000  0.16670000  0.06193000
   0.00004000  0.33467000  0.00213000
   0.99900465  0.33194980  0.35970139
   0.16757000  0.49895000  0.06268000
   0.50099000  0.49896000  0.06206000
   0.83393000  0.50234000  0.06235000
   0.00121000  0.66785000  0.00188000
   0.99757199  0.66505259  0.36157165
   0.16792000  0.83462000  0.06228000
   0.33437000  0.66664000  0.00225000
   0.34136072  0.66466944  0.36116108
   0.50152000  0.83563000  0.06217000
   0.66753000  0.66705000  0.00175000
   0.66332420  0.66587583  0.35950997
   0.83293000  0.83584000  0.06235000
   0.00121000  0.00098000  0.12225000
   0.16700000  0.16811000  0.18239000
   0.33470000  0.00227000  0.12192000
   0.50174000  0.16716000  0.18263000
   0.83421000  0.16639000  0.18283000
   0.16964000  0.49868000  0.18209000
   0.50219000  0.50081000  0.18317000
   0.66741000  0.33395000  0.12233000
   0.83134000  0.50253000  0.18283000
   0.00132000  0.66795000  0.12253000
   0.16898000  0.83509000  0.18243000
   0.33446000  0.66703000  0.12223000
   0.49971000  0.83538000  0.18278000
   0.66698000  0.66840000  0.12259000
   0.83488000  0.83403000  0.18294000
   0.33558000  0.99863000  0.24353000
   0.66801000  0.33262000  0.24229000
   0.00448000  0.66739000  0.24217000
   0.49645417  0.83551499  0.30205357
   0.66521000  0.67351000  0.24327000
   0.66620000  0.99680000  0.00000000
   0.67674107  0.98832214  0.36176750
   0.33213000  0.33386000  0.00135000
   0.32349844  0.34062901  0.36348815
   0.67040000  0.33673000  0.00321000
   0.67890190  0.34540633  0.36523313
   0.66728000  0.99998000  0.12246000
   0.99806000  0.33495000  0.12235000
   0.33675000  0.33238000  0.12261000
   0.50162245  0.16278406  0.44275506
Direct configuration=     9
   0.00086000  0.99993000  0.24271000
   0.16657515  0.16569812  0.30331665
   0.50115414  0.16658140  0.30797825
   0.66822000  0.00107000  0.24272000
   0.83390964  0.16929491  0.30329565
   0.00044000  0.33497000  0.24240000
   0.16610663  0.50297857  0.30340782
   0.33469000  0.33305000  0.24267000
   0.50165157  0.49763965  0.30278798
   0.83564435  0.50488450  0.30186054
   0.16734706  0.83392097  0.30434278
   0.33342000  0.66555000  0.24261000
   0.83770433  0.83203105  0.30278158
   0.00064000  0.00119000  0.00199000
   0.99753116  0.00622798  0.36103090
   0.16843000  0.16962000  0.06269000
   0.33460000  0.00297000  0.00254000
   0.32969566 -0.00199389  0.36248030
   0.50463000  0.16850000  0.06120000
   0.83272000  0.16670000  0.06193000
   0.00004000  0.33467000  0.00213000
   0.99910170  0.33263080  0.35977817
   0.16757000  0.49895000  0.06268000
   0.50099000  0.49896000  0.06206000
   0.83393000  0.50234000  0.06235000
   0.00121000  0.66785000  0.00188000
   0.99761904  0.66505995  0.36097689
   0.16792000  0.83462000  0.06228000
   0.33437000  0.66664000  0.00225000
   0.34114478  0.66465747  0.36103242
   0.50152000  0.83563000  0.06217000
   0.66753000  0.66705000  0.00175000
   0.66393716  0.66614606  0.35950614
   0.83293000  0.83584000  0.06235000
   0.00121000  0.00098000  0.12225000
   0.16700000  0.16811000  0.18239000
   0.33470000  0.00227000  0.12192000
   0.50174000  0.16716000  0.18263000
   0.83421000  0.16639000  0.18283000
   0.16964000  0.49868000  0.18209000
   0.50219000  0.50081000  0.18317000
   0.66741000  0.33395000  0.12233000
   0.83134000  0.50253000  0.18283000
   0.00132000  0.66795000  0.12253000
   0.16898000  0.83509000  0.18243000
   0.33446000  0.66703000  0.12223000
   0.49971000  0.83538000  0.18278000
   0.66698000  0.66840000  0.12259000
   0.83488000  0.83403000  0.18294000
   0.33558000  0.99863000  0.24353000
   0.66801000  0.33262000  0.24229000
   0.00448000  0.66739000  0.24217000
   0.49646711  0.83593528  0.30207474
   0.66521000  0.67351000  0.24327000
   0.66620000  0.99680000  0.00000000
   0.67664528  0.98984526  0.36211927
   0.33213000  0.33386000  0.00135000
   0.32484390  0.34025115  0.36392662
   0.67040000  0.33673000  0.00321000
   0.67741568  0.34396934  0.36562237
   0.66728000  0.99998000  0.12246000
   0.99806000  0.33495000  0.12235000
   0.33675000  0.33238000  0.12261000
   0.50076027  0.16157009  0.44382067
Direct configuration=    10
   0.00086000  0.99993000  0.24271000
   0.16670862  0.16572940  0.30337216
   0.50103132  0.16647151  0.30807570
   0.66822000  0.00107000  0.24272000
   0.83383847  0.16940861  0.30329269
   0.00044000  0.33497000  0.24240000
   0.16611065  0.50300902  0.30354467
   0.33469000  0.33305000  0.24267000
   0.50174527  0.49752175  0.30281458
   0.83560058  0.50485208  0.30203309
   0.16711417  0.83372208  0.30441731
   0.33342000  0.66555000  0.24261000
   0.83773106  0.83200227  0.30294428
   0.00064000  0.00119000  0.00199000
   0.99752097  0.00616524  0.36098617
   0.16843000  0.16962000  0.06269000
   0.33460000  0.00297000  0.00254000
   0.32988321 -0.00182387  0.36270153
   0.50463000  0.16850000  0.06120000
   0.83272000  0.16670000  0.06193000
   0.00004000  0.33467000  0.00213000
   0.99913097  0.33283620  0.35980133
   0.16757000  0.49895000  0.06268000
   0.50099000  0.49896000  0.06206000
   0.83393000  0.50234000  0.06235000
   0.00121000  0.66785000  0.00188000
   0.99763323  0.66506216  0.36079750
   0.16792000  0.83462000  0.06228000
   0.33437000  0.66664000  0.00225000
   0.34107966  0.66465386  0.36099362
   0.50152000  0.83563000  0.06217000
   0.66753000  0.66705000  0.00175000
   0.66412204  0.66622757  0.35950499
   0.83293000  0.83584000  0.06235000
   0.00121000  0.00098000  0.12225000
   0.16700000  0.16811000  0.18239000
   0.33470000  0.00227000  0.12192000
   0.50174000  0.16716000  0.18263000
   0.83421000  0.16639000  0.18283000
   0.16964000  0.49868000  0.18209000
   0.50219000  0.50081000  0.18317000
   0.66741000  0.33395000  0.12233000
   0.83134000  0.50253000  0.18283000
   0.00132000  0.66795000  0.12253000
   0.16898000  0.83509000  0.18243000
   0.33446000  0.66703000  0.12223000
   0.49971000  0.83538000  0.18278000
   0.66698000  0.66840000  0.12259000
   0.83488000  0.83403000  0.18294000
   0.33558000  0.99863000  0.24353000
   0.66801000  0.33262000  0.24229000
   0.00448000  0.66739000  0.24217000
   0.49647101  0.83606205  0.30208113
   0.66521000  0.67351000  0.24327000
   0.66620000  0.99680000  0.00000000
   0.67661639  0.99030465  0.36222537
   0.33213000  0.33386000  0.00135000
   0.32524971  0.34013718  0.36405886
   0.67040000  0.33673000  0.00321000
   0.67696741  0.34353592  0.36573977
   0.66728000  0.99998000  0.12246000
   0.99806000  0.33495000  0.12235000
   0.33675000  0.33238000  0.12261000
   0.50050023  0.16120394  0.44414207
Direct configuration=    11
   0.00086000  0.99993000  0.24271000
   0.16674704  0.16573840  0.30338814
   0.50099596  0.16643987  0.30810376
   0.66822000  0.00107000  0.24272000
   0.83381798  0.16944134  0.30329184
   0.00044000  0.33497000  0.24240000
   0.16611181  0.50301779  0.30358407
   0.33469000  0.33305000  0.24267000
   0.50177225  0.49748781  0.30282224
   0.83558797  0.50484274  0.30208277
   0.16704712  0.83366481  0.30443876
   0.33342000  0.66555000  0.24261000
   0.83773875  0.83199399  0.30299112
   0.00064000  0.00119000  0.00199000
   0.99751803  0.00614718  0.36097330
   0.16843000  0.16962000  0.06269000
   0.33460000  0.00297000  0.00254000
   0.32993720 -0.00177491  0.36276522
   0.50463000  0.16850000  0.06120000
   0.83272000  0.16670000  0.06193000
   0.00004000  0.33467000  0.00213000
   0.99913940  0.33289533  0.35980799
   0.16757000  0.49895000  0.06268000
   0.50099000  0.49896000  0.06206000
   0.83393000  0.50234000  0.06235000
   0.00121000  0.66785000  0.00188000
   0.99763732  0.66506280  0.36074585
   0.16792000  0.83462000  0.06228000
   0.33437000  0.66664000  0.00225000
   0.34106090  0.66465282  0.36098244
   0.50152000  0.83563000  0.06217000
   0.66753000  0.66705000  0.00175000
   0.66417527  0.66625103  0.35950465
   0.83293000  0.83584000  0.06235000
   0.00121000  0.00098000  0.12225000
   0.16700000  0.16811000  0.18239000
   0.33470000  0.00227000  0.12192000
   0.50174000  0.16716000  0.18263000
   0.83421000  0.16639000  0.18283000
   0.16964000  0.49868000  0.18209000
   0.50219000  0.50081000  0.18317000
   0.66741000  0.33395000  0.12233000
   0.83134000  0.50253000  0.18283000
   0.00132000  0.66795000  0.12253000
   0.16898000  0.83509000  0.18243000
   0.33446000  0.66703000  0.12223000
   0.49971000  0.83538000  0.18278000
   0.66698000  0.66840000  0.12259000
   0.83488000  0.83403000  0.18294000
   0.33558000  0.99863000  0.24353000
   0.66801000  0.33262000  0.24229000
   0.00448000  0.66739000  0.24217000
   0.49647214  0.83609855  0.30208297
   0.66521000  0.67351000  0.24327000
   0.66620000  0.99680000  0.00000000
   0.67660807  0.99043691  0.36225591
   0.33213000  0.33386000  0.00135000
   0.32536655  0.34010437  0.36409694
   0.67040000  0.33673000  0.00321000
   0.67683835  0.34341113  0.36577357
   0.66728000  0.99998000  0.12246000
   0.99806000  0.33495000  0.12235000
   0.33675000  0.33238000  0.12261000
   0.50042536  0.16109852  0.44423460
Direct configuration=    12
   0.00086000  0.99993000  0.24271000
   0.16667550  0.16561195  0.30351195
   0.50094082  0.16638929  0.30789368
   0.66822000  0.00107000  0.24272000
   0.83386667  0.16959541  0.30340508
   0.00044000  0.33497000  0.24240000
   0.16632574  0.50279579  0.30358476
   0.33469000  0.33305000  0.24267000
   0.50179914  0.49732118  0.30302707
   0.83540348  0.50451694  0.30216085
   0.16729159  0.83387415  0.30448565
   0.33342000  0.66555000  0.24261000
   0.83741819  0.83222668  0.30304012
   0.00064000  0.00119000  0.00199000
   0.99744660  0.00606998  0.36107910
   0.16843000  0.16962000  0.06269000
   0.33460000  0.00297000  0.00254000
   0.33009448 -0.00172551  0.36287009
   0.50463000  0.16850000  0.06120000
   0.83272000  0.16670000  0.06193000
   0.00004000  0.33467000  0.00213000
   0.99915029  0.33295295  0.36011459
   0.16757000  0.49895000  0.06268000
   0.50099000  0.49896000  0.06206000
   0.83393000  0.50234000  0.06235000
   0.00121000  0.66785000  0.00188000
   0.99786542  0.66519418  0.36065613
   0.16792000  0.83462000  0.06228000
   0.33437000  0.66664000  0.00225000
   0.34097405  0.66456445  0.36107244
   0.50152000  0.83563000  0.06217000
   0.66753000  0.66705000  0.00175000
   0.66416307  0.66645971  0.35978152
   0.83293000  0.83584000  0.06235000
   0.00121000  0.00098000  0.12225000
   0.16700000  0.16811000  0.18239000
   0.33470000  0.00227000  0.12192000
   0.50174000  0.16716000  0.18263000
   0.83421000  0.16639000  0.18283000
   0.16964000  0.49868000  0.18209000
   0.50219000  0.50081000  0.18317000
   0.66741000  0.33395000  0.12233000
   0.83134000  0.50253000  0.18283000
   0.00132000  0.66795000  0.12253000
   0.16898000  0.83509000  0.18243000
   0.33446000  0.66703000  0.12223000
   0.49971000  0.83538000  0.18278000
   0.66698000  0.66840000  0.12259000
   0.83488000  0.83403000  0.18294000
   0.33558000  0.99863000  0.24353000
   0.66801000  0.33262000  0.24229000
   0.00448000  0.66739000  0.24217000
   0.49635607  0.83605763  0.30216271
   0.66521000  0.67351000  0.24327000
   0.66620000  0.99680000  0.00000000
   0.67647688  0.99031078  0.36248955
   0.33213000  0.33386000  0.00135000
   0.32514966  0.33996043  0.36439913
   0.67040000  0.33673000  0.00321000
   0.67664939  0.34314224  0.36603767
   0.66728000  0.99998000  0.12246000
   0.99806000  0.33495000  0.12235000
   0.33675000  0.33238000  0.12261000
   0.50007575  0.16064926  0.44441428
Direct configuration=    13
   0.00086000  0.99993000  0.24271000
   0.16656509  0.16541681  0.30370303
   0.50085573  0.16631122  0.30756948
   0.66822000  0.00107000  0.24272000
   0.83394183  0.16983318  0.30357984
   0.00044000  0.33497000  0.24240000