  63  63   0   0
  0.2715385E+02  0.8532700E-09  0.8497000E-09  0.2359500E-08  0.5000000E-15
  1.000000000000000E-004
  CAR 
 ni3al                                   
      5.44303682    -45.75733090  301      0.94894800      1.00000000
    -45.757  0.0000E+00  0.0000E+00  0.0000E+00  0.0000E+00
    -45.587  0.0000E+00  0.0000E+00  0.0000E+00  0.0000E+00
    -45.416  0.0000E+00  0.0000E+00  0.0000E+00  0.0000E+00
    -45.245  0.0000E+00  0.0000E+00  0.0000E+00  0.0000E+00
    -45.075  0.0000E+00  0.0000E+00  0.0000E+00  0.0000E+00
    -44.904  0.0000E+00  0.0000E+00  0.0000E+00  0.0000E+00
    -44.733  0.0000E+00 -0.7873E-34  0.0000E+00 -0.1344E-34
    -44.563  0.0000E+00 -0.7279E-26  0.0000E+00 -0.1242E-26
    -44.392  0.0000E+00 -0.4974E-19  0.0000E+00 -0.8488E-20
    -44.221  0.0000E+00 -0.2427E-13  0.0000E+00 -0.4142E-14
    -44.051 -0.1696E-29 -0.8980E-09 -0.2894E-30 -0.1533E-09
    -43.880 -0.4299E-22 -0.2490E-05 -0.7337E-23 -0.4251E-06
    -43.709 -0.7958E-16 -0.5081E-03 -0.1358E-16 -0.8714E-04
    -43.539 -0.1116E-10 -0.3637E-02 -0.1904E-11 -0.7078E-03
    -43.368 -0.1156E-06  0.6582E-01 -0.1973E-07  0.1053E-01
    -43.197 -0.8493E-04  0.1764E+00 -0.1452E-04  0.4062E-01
    -43.027 -0.3417E-02  0.1620E+00 -0.5976E-03  0.6827E-01
    -42.856  0.2765E-01  0.6929E-01  0.4121E-02  0.8010E-01
    -42.685  0.1313E+00  0.5338E-01  0.2652E-01  0.8921E-01
    -42.515  0.2224E-01  0.5689E-02  0.3032E-01  0.9018E-01
    -42.344  0.1182E-01 -0.1038E-02  0.3234E-01  0.9000E-01
    -42.173  0.3879E-01 -0.2092E-04  0.3896E-01  0.9000E-01
    -42.003  0.1212E-01 -0.5903E-05  0.4103E-01  0.9000E-01
    -41.832  0.1668E+00 -0.4862E-03  0.6949E-01  0.8992E-01
    -41.661  0.2067E+00  0.1705E-02  0.1048E+00  0.9021E-01
    -41.491  0.3426E-01  0.3237E-01  0.1106E+00  0.9573E-01
    -41.320 -0.3315E-02  0.2585E-01  0.1100E+00  0.1001E+00
    -41.149 -0.2564E-03 -0.6118E-03  0.1100E+00  0.1000E+00
    -40.979 -0.8454E-06 -0.2330E-03  0.1100E+00  0.1000E+00
    -40.808 -0.2438E-05 -0.1205E-03  0.1100E+00  0.9998E-01
    -40.637 -0.3529E-03 -0.1202E-02  0.1099E+00  0.9977E-01
    -40.467 -0.8658E-03  0.2095E-01  0.1098E+00  0.1034E+00
    -40.296  0.3697E-01  0.1996E-01  0.1161E+00  0.1068E+00
    -40.125  0.6912E-01  0.1228E-01  0.1279E+00  0.1089E+00
    -39.955  0.1391E-01  0.3971E-01  0.1303E+00  0.1156E+00
    -39.784 -0.1521E-02  0.4549E-01  0.1300E+00  0.1234E+00
    -39.613 -0.6850E-04  0.3357E-01  0.1300E+00  0.1291E+00
    -39.443 -0.1558E-06  0.5960E-02  0.1300E+00  0.1301E+00
    -39.272 -0.2390E-10 -0.7908E-03  0.1300E+00  0.1300E+00
    -39.101 -0.2559E-15 -0.2362E-04  0.1300E+00  0.1300E+00
    -38.931  0.0000E+00 -0.3419E-07  0.1300E+00  0.1300E+00
    -38.760  0.0000E+00 -0.3236E-11  0.1300E+00  0.1300E+00
    -38.589  0.0000E+00 -0.2168E-16  0.1300E+00  0.1300E+00
    -38.419  0.0000E+00  0.0000E+00  0.1300E+00  0.1300E+00
    -38.248  0.0000E+00  0.0000E+00  0.1300E+00  0.1300E+00
    -38.077  0.0000E+00  0.0000E+00  0.1300E+00  0.1300E+00
    -37.907  0.0000E+00  0.0000E+00  0.1300E+00  0.1300E+00
    -37.736  0.0000E+00  0.0000E+00  0.1300E+00  0.1300E+00
    -37.565  0.0000E+00  0.0000E+00  0.1300E+00  0.1300E+00
    -37.395  0.0000E+00  0.0000E+00  0.1300E+00  0.1300E+00
    -37.224  0.0000E+00  0.0000E+00  0.1300E+00  0.1300E+00
    -37.053  0.0000E+00  0.0000E+00  0.1300E+00  0.1300E+00
    -36.883  0.0000E+00  0.0000E+00  0.1300E+00  0.1300E+00
    -36.712  0.0000E+00  0.0000E+00  0.1300E+00  0.1300E+00
    -36.541  0.0000E+00  0.0000E+00  0.1300E+00  0.1300E+00
    -36.371  0.0000E+00  0.0000E+00  0.1300E+00  0.1300E+00
    -36.200  0.0000E+00  0.0000E+00  0.1300E+00  0.1300E+00
    -36.029  0.0000E+00  0.0000E+00  0.1300E+00  0.1300E+00
    -35.859  0.0000E+00  0.0000E+00  0.1300E+00  0.1300E+00
    -35.688  0.0000E+00  0.0000E+00  0.1300E+00  0.1300E+00
    -35.517  0.0000E+00  0.0000E+00  0.1300E+00  0.1300E+00
    -35.347  0.0000E+00  0.0000E+00  0.1300E+00  0.1300E+00
    -35.176  0.0000E+00  0.0000E+00  0.1300E+00  0.1300E+00
    -35.005  0.0000E+00  0.0000E+00  0.1300E+00  0.1300E+00
    -34.835  0.0000E+00  0.0000E+00  0.1300E+00  0.1300E+00
    -34.664  0.0000E+00  0.0000E+00  0.1300E+00  0.1300E+00
    -34.493  0.0000E+00  0.0000E+00  0.1300E+00  0.1300E+00
    -34.323  0.0000E+00  0.0000E+00  0.1300E+00  0.1300E+00
    -34.152  0.0000E+00  0.0000E+00  0.1300E+00  0.1300E+00
    -33.981  0.0000E+00  0.0000E+00  0.1300E+00  0.1300E+00
    -33.811  0.0000E+00  0.0000E+00  0.1300E+00  0.1300E+00
    -33.640  0.0000E+00  0.0000E+00  0.1300E+00  0.1300E+00
    -33.469  0.0000E+00  0.0000E+00  0.1300E+00  0.1300E+00
    -33.299  0.0000E+00  0.0000E+00  0.1300E+00  0.1300E+00
    -33.128  0.0000E+00  0.0000E+00  0.1300E+00  0.1300E+00
    -32.957  0.0000E+00  0.0000E+00  0.1300E+00  0.1300E+00
    -32.787  0.0000E+00  0.0000E+00  0.1300E+00  0.1300E+00
    -32.616  0.0000E+00  0.0000E+00  0.1300E+00  0.1300E+00
    -32.445  0.0000E+00  0.0000E+00  0.1300E+00  0.1300E+00
    -32.275  0.0000E+00  0.0000E+00  0.1300E+00  0.1300E+00
    -32.104  0.0000E+00  0.0000E+00  0.1300E+00  0.1300E+00
    -31.933  0.0000E+00  0.0000E+00  0.1300E+00  0.1300E+00
    -31.763  0.0000E+00  0.0000E+00  0.1300E+00  0.1300E+00
    -31.592  0.0000E+00  0.0000E+00  0.1300E+00  0.1300E+00
    -31.421  0.0000E+00  0.0000E+00  0.1300E+00  0.1300E+00
    -31.251  0.0000E+00  0.0000E+00  0.1300E+00  0.1300E+00
    -31.080  0.0000E+00  0.0000E+00  0.1300E+00  0.1300E+00
    -30.909  0.0000E+00  0.0000E+00  0.1300E+00  0.1300E+00
    -30.739  0.0000E+00  0.0000E+00  0.1300E+00  0.1300E+00
    -30.568  0.0000E+00  0.0000E+00  0.1300E+00  0.1300E+00
    -30.397  0.0000E+00  0.0000E+00  0.1300E+00  0.1300E+00
    -30.227  0.0000E+00  0.0000E+00  0.1300E+00  0.1300E+00
    -30.056  0.0000E+00  0.0000E+00  0.1300E+00  0.1300E+00
    -29.885  0.0000E+00  0.0000E+00  0.1300E+00  0.1300E+00
    -29.715  0.0000E+00  0.0000E+00  0.1300E+00  0.1300E+00
    -29.544  0.0000E+00  0.0000E+00  0.1300E+00  0.1300E+00
    -29.373  0.0000E+00  0.0000E+00  0.1300E+00  0.1300E+00
    -29.203  0.0000E+00  0.0000E+00  0.1300E+00  0.1300E+00
    -29.032  0.0000E+00  0.0000E+00  0.1300E+00  0.1300E+00
    -28.861  0.0000E+00  0.0000E+00  0.1300E+00  0.1300E+00
    -28.691  0.0000E+00  0.0000E+00  0.1300E+00  0.1300E+00
    -28.520  0.0000E+00  0.0000E+00  0.1300E+00  0.1300E+00
    -28.349  0.0000E+00  0.0000E+00  0.1300E+00  0.1300E+00
    -28.179  0.0000E+00  0.0000E+00  0.1300E+00  0.1300E+00
    -28.008  0.0000E+00  0.0000E+00  0.1300E+00  0.1300E+00
    -27.837  0.0000E+00  0.0000E+00  0.1300E+00  0.1300E+00
    -27.667  0.0000E+00  0.0000E+00  0.1300E+00  0.1300E+00
    -27.496  0.0000E+00  0.0000E+00  0.1300E+00  0.1300E+00
    -27.325  0.0000E+00  0.0000E+00  0.1300E+00  0.1300E+00
    -27.155  0.0000E+00  0.0000E+00  0.1300E+00  0.1300E+00
    -26.984  0.0000E+00  0.0000E+00  0.1300E+00  0.1300E+00
    -26.813  0.0000E+00  0.0000E+00  0.1300E+00  0.1300E+00
    -26.643  0.0000E+00  0.0000E+00  0.1300E+00  0.1300E+00
    -26.472  0.0000E+00  0.0000E+00  0.1300E+00  0.1300E+00
    -26.301  0.0000E+00  0.0000E+00  0.1300E+00  0.1300E+00
    -26.131  0.0000E+00  0.0000E+00  0.1300E+00  0.1300E+00
    -25.960  0.0000E+00  0.0000E+00  0.1300E+00  0.1300E+00
    -25.789  0.0000E+00  0.0000E+00  0.1300E+00  0.1300E+00
    -25.619  0.0000E+00  0.0000E+00  0.1300E+00  0.1300E+00
    -25.448  0.0000E+00  0.0000E+00  0.1300E+00  0.1300E+00
    -25.277  0.0000E+00  0.0000E+00  0.1300E+00  0.1300E+00
    -25.107  0.0000E+00  0.0000E+00  0.1300E+00  0.1300E+00
    -24.936  0.0000E+00  0.0000E+00  0.1300E+00  0.1300E+00
    -24.765  0.0000E+00  0.0000E+00  0.1300E+00  0.1300E+00
    -24.595  0.0000E+00  0.0000E+00  0.1300E+00  0.1300E+00
    -24.424  0.0000E+00  0.0000E+00  0.1300E+00  0.1300E+00
    -24.253  0.0000E+00  0.0000E+00  0.1300E+00  0.1300E+00
    -24.083  0.0000E+00  0.0000E+00  0.1300E+00  0.1300E+00
    -23.912  0.0000E+00  0.0000E+00  0.1300E+00  0.1300E+00
    -23.741  0.0000E+00  0.0000E+00  0.1300E+00  0.1300E+00
    -23.571  0.0000E+00  0.0000E+00  0.1300E+00  0.1300E+00
    -23.400  0.0000E+00  0.0000E+00  0.1300E+00  0.1300E+00
    -23.229  0.0000E+00  0.0000E+00  0.1300E+00  0.1300E+00
    -23.059  0.0000E+00  0.0000E+00  0.1300E+00  0.1300E+00
    -22.888  0.0000E+00  0.0000E+00  0.1300E+00  0.1300E+00
    -22.717  0.0000E+00  0.0000E+00  0.1300E+00  0.1300E+00
    -22.546  0.0000E+00  0.0000E+00  0.1300E+00  0.1300E+00
    -22.376  0.0000E+00  0.0000E+00  0.1300E+00  0.1300E+00
    -22.205  0.0000E+00  0.0000E+00  0.1300E+00  0.1300E+00
    -22.034  0.0000E+00  0.0000E+00  0.1300E+00  0.1300E+00
    -21.864  0.0000E+00  0.0000E+00  0.1300E+00  0.1300E+00
    -21.693  0.0000E+00  0.0000E+00  0.1300E+00  0.1300E+00
    -21.522  0.0000E+00  0.0000E+00  0.1300E+00  0.1300E+00
    -21.352  0.0000E+00  0.0000E+00  0.1300E+00  0.1300E+00
    -21.181  0.0000E+00  0.0000E+00  0.1300E+00  0.1300E+00
    -21.010  0.0000E+00  0.0000E+00  0.1300E+00  0.1300E+00
    -20.840  0.0000E+00  0.0000E+00  0.1300E+00  0.1300E+00
    -20.669  0.0000E+00  0.0000E+00  0.1300E+00  0.1300E+00
    -20.498  0.0000E+00  0.0000E+00  0.1300E+00  0.1300E+00
    -20.328  0.0000E+00  0.0000E+00  0.1300E+00  0.1300E+00
    -20.157  0.0000E+00  0.0000E+00  0.1300E+00  0.1300E+00
    -19.986  0.0000E+00  0.0000E+00  0.1300E+00  0.1300E+00
    -19.816  0.0000E+00  0.0000E+00  0.1300E+00  0.1300E+00
    -19.645  0.0000E+00  0.0000E+00  0.1300E+00  0.1300E+00
    -19.474  0.0000E+00  0.0000E+00  0.1300E+00  0.1300E+00
    -19.304  0.0000E+00  0.0000E+00  0.1300E+00  0.1300E+00
    -19.133  0.0000E+00  0.0000E+00  0.1300E+00  0.1300E+00
    -18.962  0.0000E+00  0.0000E+00  0.1300E+00  0.1300E+00
    -18.792  0.0000E+00  0.0000E+00  0.1300E+00  0.1300E+00
    -18.621  0.0000E+00  0.0000E+00  0.1300E+00  0.1300E+00
    -18.450  0.0000E+00  0.0000E+00  0.1300E+00  0.1300E+00
    -18.280  0.0000E+00  0.0000E+00  0.1300E+00  0.1300E+00
    -18.109  0.0000E+00  0.0000E+00  0.1300E+00  0.1300E+00
    -17.938  0.0000E+00  0.0000E+00  0.1300E+00  0.1300E+00
    -17.768  0.0000E+00  0.0000E+00  0.1300E+00  0.1300E+00
    -17.597  0.0000E+00  0.0000E+00  0.1300E+00  0.1300E+00
    -17.426  0.0000E+00  0.0000E+00  0.1300E+00  0.1300E+00
    -17.256  0.0000E+00  0.0000E+00  0.1300E+00  0.1300E+00
    -17.085  0.0000E+00  0.0000E+00  0.1300E+00  0.1300E+00
    -16.914  0.0000E+00 -0.2951E-36  0.1300E+00  0.1300E+00
    -16.744 -0.1550E-29 -0.6443E-28  0.1300E+00  0.1300E+00
    -16.573 -0.4272E-22 -0.1037E-20  0.1300E+00  0.1300E+00
    -16.402 -0.8330E-16 -0.1192E-14  0.1300E+00  0.1300E+00
    -16.232 -0.1225E-10 -0.1014E-09  0.1300E+00  0.1300E+00
    -16.061 -0.1267E-06 -0.6093E-06  0.1300E+00  0.1300E+00
    -15.890 -0.8704E-04 -0.2367E-03  0.1300E+00  0.1300E+00
    -15.720 -0.2708E-02 -0.2952E-02  0.1295E+00  0.1295E+00
    -15.549  0.2726E-01  0.4560E-01  0.1342E+00  0.1372E+00
    -15.378  0.7155E-01  0.5766E-01  0.1464E+00  0.1471E+00
    -15.208  0.2621E-02 -0.1981E-02  0.1468E+00  0.1467E+00
    -15.037 -0.9733E-03 -0.4380E-03  0.1467E+00  0.1467E+00
    -14.866 -0.7822E-05 -0.1774E-05  0.1467E+00  0.1467E+00
    -14.696 -0.3862E-08 -0.4634E-09  0.1467E+00  0.1467E+00
    -14.525 -0.1355E-12 -0.8656E-14  0.1467E+00  0.1467E+00
    -14.354  0.0000E+00  0.0000E+00  0.1467E+00  0.1467E+00
    -14.184  0.0000E+00  0.0000E+00  0.1467E+00  0.1467E+00
    -14.013  0.0000E+00  0.0000E+00  0.1467E+00  0.1467E+00
    -13.842  0.0000E+00  0.0000E+00  0.1467E+00  0.1467E+00
    -13.672  0.0000E+00  0.0000E+00  0.1467E+00  0.1467E+00
    -13.501  0.0000E+00  0.0000E+00  0.1467E+00  0.1467E+00
    -13.330  0.0000E+00  0.0000E+00  0.1467E+00  0.1467E+00
    -13.160  0.0000E+00  0.0000E+00  0.1467E+00  0.1467E+00
    -12.989  0.0000E+00  0.0000E+00  0.1467E+00  0.1467E+00
    -12.818  0.0000E+00  0.0000E+00  0.1467E+00  0.1467E+00
    -12.648  0.0000E+00  0.0000E+00  0.1467E+00  0.1467E+00
    -12.477  0.0000E+00  0.0000E+00  0.1467E+00  0.1467E+00
    -12.306  0.0000E+00  0.0000E+00  0.1467E+00  0.1467E+00
    -12.136  0.0000E+00  0.0000E+00  0.1467E+00  0.1467E+00
    -11.965  0.0000E+00  0.0000E+00  0.1467E+00  0.1467E+00
    -11.794  0.0000E+00  0.0000E+00  0.1467E+00  0.1467E+00
    -11.624  0.0000E+00  0.0000E+00  0.1467E+00  0.1467E+00
    -11.453  0.0000E+00  0.0000E+00  0.1467E+00  0.1467E+00
    -11.282  0.0000E+00  0.0000E+00  0.1467E+00  0.1467E+00
    -11.112  0.0000E+00  0.0000E+00  0.1467E+00  0.1467E+00
    -10.941  0.0000E+00  0.0000E+00  0.1467E+00  0.1467E+00
    -10.770  0.0000E+00  0.0000E+00  0.1467E+00  0.1467E+00
    -10.600  0.0000E+00  0.0000E+00  0.1467E+00  0.1467E+00
    -10.429  0.0000E+00  0.0000E+00  0.1467E+00  0.1467E+00
    -10.258  0.0000E+00  0.0000E+00  0.1467E+00  0.1467E+00
    -10.088  0.0000E+00  0.0000E+00  0.1467E+00  0.1467E+00
     -9.917  0.0000E+00  0.0000E+00  0.1467E+00  0.1467E+00
     -9.746  0.0000E+00  0.0000E+00  0.1467E+00  0.1467E+00
     -9.576  0.0000E+00  0.0000E+00  0.1467E+00  0.1467E+00
     -9.405  0.0000E+00  0.0000E+00  0.1467E+00  0.1467E+00
     -9.234  0.0000E+00  0.0000E+00  0.1467E+00  0.1467E+00
     -9.064  0.0000E+00 -0.1882E-36  0.1467E+00  0.1467E+00
     -8.893 -0.2251E-31 -0.3545E-28  0.1467E+00  0.1467E+00
     -8.722 -0.7980E-24 -0.4872E-21  0.1467E+00  0.1467E+00
     -8.552 -0.2173E-17 -0.4867E-15  0.1467E+00  0.1467E+00
     -8.381 -0.4356E-12 -0.3658E-10  0.1467E+00  0.1467E+00
     -8.210 -0.6720E-08 -0.1949E-06  0.1467E+00  0.1467E+00
     -8.040 -0.7299E-05 -0.6581E-04  0.1467E+00  0.1467E+00
     -7.869 -0.4205E-03 -0.5603E-03  0.1466E+00  0.1466E+00
     -7.698  0.3190E-02  0.1080E-01  0.1471E+00  0.1484E+00
     -7.528  0.1551E-01  0.1002E-01  0.1498E+00  0.1501E+00
     -7.357  0.1458E-02 -0.6421E-03  0.1500E+00  0.1500E+00
     -7.186  0.5571E-03 -0.1305E-04  0.1501E+00  0.1500E+00
     -7.016  0.5270E-02  0.2656E-02  0.1510E+00  0.1505E+00
     -6.845  0.4638E-02  0.6114E-02  0.1518E+00  0.1515E+00
     -6.674  0.3442E-02  0.2586E-02  0.1524E+00  0.1519E+00
     -6.504  0.9578E-02  0.6238E-02  0.1540E+00  0.1530E+00
     -6.333  0.1939E-02  0.7876E-02  0.1544E+00  0.1543E+00
     -6.162  0.3990E-02  0.3082E-03  0.1551E+00  0.1544E+00
     -5.992  0.1376E-01  0.6030E-02  0.1574E+00  0.1554E+00
     -5.821  0.1225E-01  0.1508E-01  0.1595E+00  0.1580E+00
     -5.650  0.9854E-02  0.9646E-02  0.1612E+00  0.1596E+00
     -5.480  0.1199E-01  0.9717E-02  0.1632E+00  0.1613E+00
     -5.309  0.5991E-02  0.1320E-01  0.1642E+00  0.1636E+00
     -5.138  0.1665E-01  0.3381E-02  0.1671E+00  0.1641E+00
     -4.968  0.1795E-01  0.1581E-01  0.1702E+00  0.1668E+00
     -4.797  0.1361E-01  0.1824E-01  0.1725E+00  0.1699E+00
     -4.626  0.1909E-01  0.9978E-02  0.1757E+00  0.1717E+00
     -4.456  0.2505E-01  0.1617E-01  0.1800E+00  0.1744E+00
     -4.285  0.2829E-01  0.1203E-01  0.1848E+00  0.1765E+00
     -4.114  0.3938E-01  0.2921E-01  0.1916E+00  0.1814E+00
     -3.944  0.5861E-01  0.2368E-01  0.2016E+00  0.1855E+00
     -3.773  0.8158E-01  0.2483E-01  0.2155E+00  0.1897E+00
     -3.602  0.1191E+00  0.2224E-01  0.2358E+00  0.1935E+00
     -3.432  0.1206E+00  0.2794E-01  0.2564E+00  0.1983E+00
     -3.261  0.1604E+00  0.4361E-01  0.2838E+00  0.2057E+00
     -3.090  0.1797E+00  0.5759E-01  0.3144E+00  0.2156E+00
     -2.920  0.1355E+00  0.6685E-01  0.3376E+00  0.2270E+00
     -2.749  0.1422E+00  0.7684E-01  0.3618E+00  0.2401E+00
     -2.578  0.2176E+00  0.6129E-01  0.3990E+00  0.2505E+00
     -2.408  0.2641E+00  0.8560E-01  0.4440E+00  0.2652E+00
     -2.237  0.2389E+00  0.9876E-01  0.4848E+00  0.2820E+00
     -2.066  0.2233E+00  0.9995E-01  0.5229E+00  0.2991E+00
     -1.896  0.2252E+00  0.1175E+00  0.5613E+00  0.3191E+00
     -1.725  0.2213E+00  0.1168E+00  0.5991E+00  0.3391E+00
     -1.554  0.2346E+00  0.1181E+00  0.6391E+00  0.3592E+00
     -1.384  0.2237E+00  0.1599E+00  0.6773E+00  0.3865E+00
     -1.213  0.1876E+00  0.1784E+00  0.7093E+00  0.4170E+00
     -1.042  0.1568E+00  0.1639E+00  0.7361E+00  0.4449E+00
     -0.872  0.1704E+00  0.1671E+00  0.7652E+00  0.4734E+00
     -0.701  0.1973E+00  0.1772E+00  0.7989E+00  0.5037E+00
     -0.530  0.2582E+00  0.2145E+00  0.8429E+00  0.5403E+00
     -0.360  0.3159E+00  0.2169E+00  0.8969E+00  0.5773E+00
     -0.189  0.3010E+00  0.2120E+00  0.9482E+00  0.6135E+00
     -0.018  0.2299E+00  0.1953E+00  0.9875E+00  0.6468E+00
      0.152  0.1715E+00  0.1541E+00  0.1017E+01  0.6731E+00
      0.323  0.1419E+00  0.1202E+00  0.1041E+01  0.6936E+00
      0.494  0.1297E+00  0.1053E+00  0.1063E+01  0.7116E+00
      0.664  0.1273E+00  0.9734E-01  0.1085E+01  0.7282E+00
      0.835  0.1109E+00  0.9728E-01  0.1104E+01  0.7448E+00
      1.006  0.8605E-01  0.1348E+00  0.1118E+01  0.7678E+00
      1.176  0.9615E-01  0.1612E+00  0.1135E+01  0.7953E+00
      1.347  0.1146E+00  0.1779E+00  0.1154E+01  0.8257E+00
      1.518  0.1195E+00  0.1916E+00  0.1175E+01  0.8584E+00
      1.688  0.1186E+00  0.2269E+00  0.1195E+01  0.8971E+00
      1.859  0.1240E+00  0.2337E+00  0.1216E+01  0.9370E+00
      2.030  0.7851E-01  0.2462E+00  0.1230E+01  0.9790E+00
      2.200  0.3633E-02  0.2873E+00  0.1230E+01  0.1028E+01
      2.371 -0.1162E-02  0.3124E+00  0.1230E+01  0.1081E+01
      2.542 -0.1913E-04  0.3268E+00  0.1230E+01  0.1137E+01
      2.712 -0.2306E-07  0.2545E+00  0.1230E+01  0.1181E+01
      2.883 -0.2211E-11  0.1809E+00  0.1230E+01  0.1211E+01
      3.054 -0.1653E-16  0.9722E-01  0.1230E+01  0.1228E+01
      3.224  0.0000E+00  0.1341E-01  0.1230E+01  0.1230E+01
      3.395  0.0000E+00 -0.1833E-02  0.1230E+01  0.1230E+01
      3.566  0.0000E+00 -0.7962E-04  0.1230E+01  0.1230E+01
      3.736  0.0000E+00 -0.2565E-06  0.1230E+01  0.1230E+01
      3.907  0.0000E+00 -0.7292E-10  0.1230E+01  0.1230E+01
      4.078  0.0000E+00 -0.1731E-14  0.1230E+01  0.1230E+01
      4.248  0.0000E+00  0.0000E+00  0.1230E+01  0.1230E+01
      4.419  0.0000E+00  0.0000E+00  0.1230E+01  0.1230E+01
      4.590  0.0000E+00  0.0000E+00  0.1230E+01  0.1230E+01
      4.760  0.0000E+00  0.0000E+00  0.1230E+01  0.1230E+01
      4.931  0.0000E+00  0.0000E+00  0.1230E+01  0.1230E+01
      5.102  0.0000E+00  0.0000E+00  0.1230E+01  0.1230E+01
      5.272  0.0000E+00  0.0000E+00  0.1230E+01  0.1230E+01
      5.443  0.0000E+00  0.0000E+00  0.1230E+01  0.1230E+01
