   63   63  300    2
  0.2715385E+02  0.8532700E-09  0.8497000E-09  0.2359500E-08  0.5000000E-15
  1.000000000000000E-004
  CAR 
 ni3al                                   
    562     10    369
 
  0.0000000E+00  0.0000000E+00  0.0000000E+00  0.6250000E-01
      1        -42.835710      -43.430027   1.000000   1.000000
      2        -42.817166      -43.380153   1.000000   1.000000
      3        -42.802947      -43.370973   1.000000   1.000000
      4        -42.797184      -43.358166   1.000000   1.000000
      5        -42.769810      -43.350715   1.000000   1.000000
      6        -42.756602      -43.346374   1.000000   1.000000
      7        -42.734909      -43.307209   1.000000   1.000000
      8        -42.731163      -43.291329   1.000000   1.000000
      9        -42.721609      -43.248679   1.000000   1.000000
     10        -42.343761      -43.220681   1.000000   1.000000
     11        -42.280631      -43.202503   1.000000   1.000000
     12        -42.232543      -43.191464   1.000000   1.000000
     13        -41.979019      -43.189906   1.000000   1.000000
     14        -41.956965      -43.177384   1.000000   1.000000
     15        -41.898090      -43.173040   1.000000   1.000000
     16        -41.876053      -43.158461   1.000000   1.000000
     17        -41.863697      -43.129831   1.000000   1.000000
     18        -41.861854      -43.115772   1.000000   1.000000
     19        -41.841065      -43.080070   1.000000   1.000000
     20        -41.837242      -43.070536   1.000000   1.000000
     21        -41.836511      -43.048550   1.000000   1.000000
     22        -41.820398      -42.985677   1.000000   1.000000
     23        -41.814954      -42.903474   1.000000   1.000000
     24        -41.811827      -42.888010   1.000000   1.000000
     25        -41.798250      -42.814922   1.000000   1.000000
     26        -41.789759      -42.790646   1.000000   1.000000
     27        -41.777359      -42.726515   1.000000   1.000000
     28        -41.767198      -41.584245   1.000000   1.000000
     29        -41.751961      -41.499929   1.000000   1.000000
     30        -41.748226      -41.441123   1.000000   1.000000
     31        -41.667412      -40.471170   1.000000   1.000000
     32        -41.646816      -40.464063   1.000000   1.000000
     33        -41.635479      -40.151795   1.000000   1.000000
     34        -40.363491      -40.035469   1.000000   1.000000
     35        -40.298538      -39.939504   1.000000   1.000000
     36        -40.249263      -39.938109   1.000000   1.000000
     37        -40.243496      -39.811335   1.000000   1.000000
     38        -40.188605      -39.747916   1.000000   1.000000
     39        -40.125809      -39.646462   1.000000   1.000000
     40        -15.521509      -15.557911   1.000000   1.000000
     41        -15.520069      -15.554245   1.000000   1.000000
     42        -15.515149      -15.548327   1.000000   1.000000
     43        -15.477992      -15.515099   1.000000   1.000000
     44        -15.467860      -15.509342   1.000000   1.000000
     45         -7.661696       -7.726236   1.000000   1.000000
     46         -7.201805       -7.118064   1.000000   1.000000
     47         -6.183936       -6.039131   1.000000   1.000000
     48         -5.310561       -5.114679   1.000000   1.000000
     49         -5.249341       -5.094276   1.000000   1.000000
     50         -5.232413       -5.085163   1.000000   1.000000
     51         -5.214594       -5.050927   1.000000   1.000000
     52         -4.873866       -4.602626   1.000000   1.000000
     53         -4.655646       -4.337124   1.000000   1.000000
     54         -4.610931       -4.326415   1.000000   1.000000
     55         -4.593437       -4.284857   1.000000   1.000000
     56         -4.550181       -4.189709   1.000000   1.000000
     57         -4.152540       -3.719964   1.000000   1.000000
     58         -4.145089       -3.711036   1.000000   1.000000
     59         -4.128215       -3.675161   1.000000   1.000000
     60         -4.111742       -3.602689   1.000000   1.000000
     61         -4.090436       -3.545691   1.000000   1.000000
     62         -4.065573       -3.531939   1.000000   1.000000
     63         -4.052450       -3.449269   1.000000   1.000000
     64         -4.001966       -3.332259   1.000000   1.000000
     65         -3.895096       -3.253188   1.000000   1.000000
     66         -3.865647       -2.947797   1.000000   1.000000
     67         -3.718705       -2.924861   1.000000   1.000000
     68         -3.674429       -2.873013   1.000000   1.000000
     69         -3.653952       -2.856715   1.000000   1.000000
     70         -3.628669       -2.839298   1.000000   1.000000
     71         -3.590167       -2.808926   1.000000   1.000000
     72         -3.514638       -2.762240   1.000000   1.000000
     73         -3.463866       -2.682551   1.000000   1.000000
     74         -3.444901       -2.647979   1.000000   1.000000
     75         -3.418236       -2.582172   1.000000   1.000000
     76         -3.408851       -2.441443   1.000000   1.000000
     77         -3.394751       -2.397667   1.000000   1.000000
     78         -3.376720       -2.383485   1.000000   1.000000
     79         -3.364336       -2.366460   1.000000   1.000000
     80         -3.357713       -2.356773   1.000000   1.000000
     81         -3.339869       -2.321100   1.000000   1.000000
     82         -3.322756       -2.279792   1.000000   1.000000
     83         -3.306044       -2.272557   1.000000   1.000000
     84         -3.283371       -2.234212   1.000000   1.000000
     85         -3.277630       -2.218241   1.000000   1.000000
     86         -3.260111       -2.162704   1.000000   1.000000
     87         -3.247578       -2.141942   1.000000   1.000000
     88         -3.237865       -2.117417   1.000000   1.000000
     89         -3.221397       -2.095565   1.000000   1.000000
     90         -3.191290       -2.060294   1.000000   1.000000
     91         -3.169259       -2.036577   1.000000   1.000000
     92         -3.071533       -2.017190   1.000000   1.000000
     93         -3.036302       -1.963995   1.000000   1.000000
     94         -2.986435       -1.926781   1.000000   1.000000
     95         -2.981505       -1.897116   1.000000   1.000000
     96         -2.972665       -1.836712   1.000000   1.000000
     97         -2.963950       -1.831484   1.000000   1.000000
     98         -2.945371       -1.801591   1.000000   1.000000
     99         -2.935896       -1.786355   1.000000   1.000000
    100         -2.911898       -1.777583   1.000000   1.000000
    101         -2.899453       -1.698897   1.000000   1.000000
    102         -2.873087       -1.670574   1.000000   1.000000
    103         -2.853098       -1.655578   1.000000   1.000000
    104         -2.810372       -1.629596   1.000000   1.000000
    105         -2.800909       -1.618226   1.000000   1.000000
    106         -2.745709       -1.584692   1.000000   1.000000
    107         -2.742688       -1.555599   1.000000   1.000000
    108         -2.726671       -1.528363   1.000000   1.000000
    109         -2.688204       -1.512569   1.000000   1.000000
    110         -2.653871       -1.506246   1.000000   1.000000
    111         -2.620784       -1.478079   1.000000   1.000000
    112         -2.619017       -1.454433   1.000000   1.000000
    113         -2.601960       -1.421049   1.000000   1.000000
    114         -2.590378       -1.416589   1.000000   1.000000
    115         -2.577312       -1.395875   1.000000   1.000000
    116         -2.565410       -1.372544   1.000000   1.000000
    117         -2.544016       -1.357442   1.000000   1.000000
    118         -2.540685       -1.339609   1.000000   1.000000
    119         -2.530164       -1.322914   1.000000   1.000000
    120         -2.526707       -1.294017   1.000000   1.000000
    121         -2.515935       -1.275011   1.000000   1.000000
    122         -2.504975       -1.249920   1.000000   1.000000
    123         -2.492012       -1.242466   1.000000   1.000000
    124         -2.483987       -1.215506   1.000000   1.000000
    125         -2.474218       -1.203675   1.000000   1.000000
    126         -2.467355       -1.187669   1.000000   1.000000
    127         -2.461666       -1.184238   1.000000   1.000000
    128         -2.442574       -1.175836   1.000000   1.000000
    129         -2.431043       -1.139505   1.000000   1.000000
    130         -2.424715       -1.118975   1.000000   1.000000
    131         -2.407584       -1.104635   1.000000   1.000000
    132         -2.402946       -1.088255   1.000000   1.000000
    133         -2.391937       -1.058499   1.000000   1.000000
    134         -2.387462       -1.037963   1.000000   1.000000
    135         -2.367673       -1.026776   1.000000   1.000000
    136         -2.359341       -1.001078   1.000000   1.000000
    137         -2.357249       -0.984808   1.000000   1.000000
    138         -2.328904       -0.965960   1.000000   1.000000
    139         -2.324492       -0.952189   1.000000   1.000000
    140         -2.310742       -0.943046   1.000000   1.000000
    141         -2.293518       -0.929482   1.000000   1.000000
    142         -2.279113       -0.919309   1.000000   1.000000
    143         -2.277351       -0.903704   1.000000   1.000000
    144         -2.265287       -0.879680   1.000000   1.000000
    145         -2.255471       -0.875746   1.000000   1.000000
    146         -2.240759       -0.844688   1.000000   1.000000
    147         -2.230590       -0.835109   1.000000   1.000000
    148         -2.219144       -0.823734   1.000000   1.000000
    149         -2.198282       -0.800606   1.000000   1.000000
    150         -2.190735       -0.790591   1.000000   1.000000
    151         -2.178427       -0.770064   1.000000   1.000000
    152         -2.154413       -0.760311   1.000000   1.000000
    153         -2.141942       -0.730540   1.000000   1.000000
    154         -2.125043       -0.725020   1.000000   1.000000
    155         -2.113854       -0.682361   1.000000   1.000000
    156         -2.100617       -0.674956   1.000000   1.000000
    157         -2.092571       -0.649018   1.000000   1.000000
    158         -2.084656       -0.628172   1.000000   1.000000
    159         -2.066472       -0.610299   1.000000   1.000000
    160         -2.053741       -0.595581   1.000000   1.000000
    161         -2.036469       -0.586599   1.000000   1.000000
    162         -2.026779       -0.576113   1.000000   1.000000
    163         -2.019405       -0.555343   1.000000   1.000000
    164         -1.994155       -0.543418   1.000000   1.000000
    165         -1.977692       -0.524893   1.000000   1.000000
    166         -1.958789       -0.514546   1.000000   1.000000
    167         -1.949479       -0.494119   1.000000   1.000000
    168         -1.939516       -0.471687   1.000000   1.000000
    169         -1.917149       -0.455269   1.000000   1.000000
    170         -1.910061       -0.441881   1.000000   1.000000
    171         -1.894302       -0.423921   1.000000   1.000000
    172         -1.876682       -0.392477   1.000000   1.000000
    173         -1.874341       -0.377104   1.000000   1.000000
    174         -1.847381       -0.354491   1.000000   1.000000
    175         -1.836739       -0.342082   1.000000   1.000000
    176         -1.812759       -0.312617   1.000000   1.000000
    177         -1.804782       -0.307506   1.000000   1.000000
    178         -1.792554       -0.289553   1.000000   1.000000
    179         -1.772009       -0.271768   1.000000   1.000000
    180         -1.769679       -0.249507   1.000000   1.000000
    181         -1.738225       -0.233123   1.000000   1.000000
    182         -1.733202       -0.213902   1.000000   1.000000
    183         -1.708383       -0.209222   1.000000   1.000000
    184         -1.691407       -0.201068   1.000000   1.000000
    185         -1.675183       -0.186061   1.000000   1.000000
    186         -1.651547       -0.171356   1.000000   1.000000
    187         -1.645524       -0.166236   1.000000   1.000000
    188         -1.631792       -0.114161   1.000000   1.000000
    189         -1.619514       -0.097466   1.000000   1.000000
    190         -1.600016       -0.088776   1.000000   1.000000
    191         -1.594247       -0.061660   1.000000   1.000000
    192         -1.564932       -0.028150   1.000000   1.000000
    193         -1.536887        0.003573   1.000000   1.000000
    194         -1.528165        0.021900   1.000000   1.000000
    195         -1.481509        0.079562   1.000000   1.000000
    196         -1.475214        0.107018   1.000000   1.000000
    197         -1.459624        0.123015   1.000000   1.000000
    198         -1.438142        0.157370   1.000000   1.000000
    199         -1.424787        0.162296   1.000000   1.000000
    200         -1.398157        0.166276   1.000000   1.000000
    201         -1.375070        0.208130   1.000000   1.000000
    202         -1.364355        0.220031   1.000000   1.000000
    203         -1.357585        0.252422   1.000000   1.000000
    204         -1.351302        0.274283   1.000000   1.000000
    205         -1.339704        0.282377   1.000000   1.000000
    206         -1.312619        0.297147   1.000000   1.000000
    207         -1.297835        0.309335   1.000000   1.000000
    208         -1.285976        0.350337   1.000000   1.000000
    209         -1.259382        0.364680   1.000000   1.000000
    210         -1.253639        0.368094   1.000000   1.000000
    211         -1.232203        0.381241   1.000000   1.000001
    212         -1.196072        0.418856   1.000000   1.000003
    213         -1.179516        0.452178   1.000000   1.000015
    214         -1.163535        0.513886   1.000000   1.000161
    215         -1.156334        0.547972   1.000000   1.000516
    216         -1.127462        0.549161   1.000000   1.000536
    217         -1.105957        0.570791   1.000000   1.001054
    218         -1.089547        0.590364   1.000000   1.001862
    219         -1.077299        0.611161   1.000000   1.003262
    220         -1.064240        0.625251   1.000000   1.004644
    221         -1.060492        0.645566   1.000000   1.007428
    222         -1.044120        0.680706   1.000000   1.014886
    223         -1.041541        0.701326   1.000000   1.020736
    224         -1.018566        0.737921   1.000000   1.031519
    225         -0.988877        0.777964   1.000000   1.034216
    226         -0.965589        0.795234   1.000000   1.027509
    227         -0.954656        0.823173   1.000000   0.999252
    228         -0.933893        0.856897   1.000000   0.926057
    229         -0.917800        0.873500   1.000000   0.871735
    230         -0.908227        0.945369   1.000000   0.520184
    231         -0.884231        1.023361   1.000000   0.132059
    232         -0.863325        1.039618   1.000000   0.077990
    233         -0.840756        1.062809   1.000000   0.021176
    234         -0.835857        1.072703   1.000000   0.003822
    235         -0.807251        1.089552   1.000000  -0.017346
    236         -0.794316        1.106919   1.000000  -0.029799
    237         -0.774508        1.112244   1.000000  -0.032049
    238         -0.755047        1.151602   1.000000  -0.033401
    239         -0.751426        1.174254   1.000000  -0.027560
    240         -0.737157        1.187589   1.000000  -0.023485
    241         -0.725592        1.194555   1.000000  -0.021347
    242         -0.712633        1.202359   1.000000  -0.019011
    243         -0.695837        1.223638   1.000000  -0.013259
    244         -0.683514        1.235952   1.000000  -0.010470
    245         -0.664382        1.243216   1.000000  -0.009028
    246         -0.653696        1.261185   1.000000  -0.006088
    247         -0.634297        1.270634   1.000000  -0.004875
    248         -0.626976        1.281031   1.000000  -0.003773
    249         -0.605570        1.297209   1.000000  -0.002474
    250         -0.593029        1.329621   1.000000  -0.000976
    251         -0.579145        1.351780   1.000000  -0.000486
    252         -0.567324        1.356525   1.000000  -0.000416
    253         -0.548022        1.373022   1.000000  -0.000238
    254         -0.532816        1.394116   1.000000  -0.000112
    255         -0.521781        1.414272   1.000000  -0.000052
    256         -0.519438        1.438328   1.000000  -0.000020
    257         -0.507358        1.458585   1.000000  -0.000009
    258         -0.487963        1.462172   1.000000  -0.000007
    259         -0.484108        1.476280   1.000000  -0.000004
    260         -0.469100        1.490837   1.000000  -0.000002
    261         -0.462878        1.504848   1.000000  -0.000001
    262         -0.452991        1.515648   1.000000  -0.000001
    263         -0.436551        1.538340   1.000000  -0.000000
    264         -0.427686        1.554730   1.000000  -0.000000
    265         -0.423968        1.573552   1.000000  -0.000000
    266         -0.418705        1.573978   1.000000  -0.000000
    267         -0.408589        1.606328   1.000000  -0.000000
    268         -0.403616        1.619212   1.000000  -0.000000
    269         -0.394434        1.632167   1.000000  -0.000000
    270         -0.380246        1.644402   1.000000  -0.000000
    271         -0.373914        1.678416   1.000000  -0.000000
    272         -0.361516        1.685255   1.000000  -0.000000
    273         -0.349305        1.692171   1.000000  -0.000000
    274         -0.342555        1.698444   1.000000  -0.000000
    275         -0.334793        1.725264   1.000000  -0.000000
    276         -0.311627        1.740502   1.000000  -0.000000
    277         -0.311107        1.762744   1.000000  -0.000000
    278         -0.298473        1.765799   1.000000  -0.000000
    279         -0.288756        1.772850   1.000000  -0.000000
    280         -0.285066        1.800975   1.000000  -0.000000
    281         -0.276469        1.819932   1.000000  -0.000000
    282         -0.264177        1.838344   1.000000  -0.000000
    283         -0.256443        1.856094   1.000000  -0.000000
    284         -0.244450        1.868851   1.000000  -0.000000
    285         -0.239859        1.904668   1.000000  -0.000000
    286         -0.227241        1.911619   1.000000  -0.000000
    287         -0.210638        1.920023   1.000000  -0.000000
    288         -0.191284        1.947159   1.000000  -0.000000
    289         -0.186787        1.957144   1.000000  -0.000000
    290         -0.169615        1.981480   1.000000  -0.000000
    291         -0.152209        1.993889   1.000000  -0.000000
    292         -0.141724        2.004846   1.000000  -0.000000
    293         -0.132202        2.008112   1.000000  -0.000000
    294         -0.124338        2.025245   1.000000  -0.000000
    295         -0.104469        2.033022   1.000000  -0.000000
    296         -0.098448        2.045075   1.000000  -0.000000
    297         -0.075975        2.069348   1.000000  -0.000000
    298         -0.061513        2.082864   1.000000  -0.000000
    299         -0.046903        2.099540   1.000000  -0.000000
    300         -0.031892        2.117819   1.000000  -0.000000
    301         -0.020799        2.124917   1.000000  -0.000000
    302          0.008318        2.131415   1.000000  -0.000000
    303          0.055073        2.139780   1.000000  -0.000000
    304          0.090134        2.144347   1.000000  -0.000000
    305          0.106433        2.152977   1.000000  -0.000000
    306          0.128830        2.170545   1.000000  -0.000000
    307          0.155066        2.174662   1.000000  -0.000000
    308          0.172537        2.191797   1.000000  -0.000000
    309          0.184868        2.200158   1.000000  -0.000000
    310          0.214400        2.214488   1.000000  -0.000000
    311          0.226497        2.217899   1.000000  -0.000000
    312          0.250938        2.221168   1.000000  -0.000000
    313          0.288291        2.229430   1.000000  -0.000000
    314          0.298624        2.241416   1.000000  -0.000000
    315          0.307267        2.247480   1.000000  -0.000000
    316          0.335569        2.255770   1.000000  -0.000000
    317          0.368961        2.270045   1.000000  -0.000000
    318          0.405790        2.278274   1.000002  -0.000000
    319          0.491919        2.288265   1.000072  -0.000000
    320          0.510718        2.300292   1.000144  -0.000000
    321          0.521418        2.307446   1.000211  -0.000000
    322          0.546895        2.322699   1.000498  -0.000000
    323          0.557121        2.330889   1.000691  -0.000000
    324          0.565671        2.353260   1.000902  -0.000000
    325          0.589211        2.362598   1.001802  -0.000000
    326          0.639340        2.377736   1.006464  -0.000000
    327          0.659091        2.390273   1.009885  -0.000000
    328          0.664215        2.396514   1.010952  -0.000000
    329          0.680238        2.402126   1.014764  -0.000000
    330          0.710281        2.411595   1.023477  -0.000000
    331          0.722093        2.415456   1.027097  -0.000000
    332          0.749128        2.425305   1.033929  -0.000000
    333          0.779476        2.432432   1.033883  -0.000000
    334          0.834615        2.441476   0.979740  -0.000000
    335          0.895048        2.448592   0.783421  -0.000000
    336          0.944957        2.461794   0.522509  -0.000000
    337          1.012424        2.468217   0.174967  -0.000000
    338          1.027455        2.484270   0.117333  -0.000000
    339          1.121365        2.506574  -0.034492  -0.000000
    340          1.132337        2.515399  -0.035457  -0.000000
    341          1.199549        2.524588  -0.019842  -0.000000
    342          1.208852        2.528570  -0.017146  -0.000000
    343          1.246039        2.543341  -0.008507  -0.000000
    344          1.273023        2.569466  -0.004601  -0.000000
    345          1.315923        2.595455  -0.001466  -0.000000
    346          1.342490        2.607600  -0.000655  -0.000000
    347          1.372893        2.614427  -0.000239  -0.000000
    348          1.408380        2.627043  -0.000065  -0.000000
    349          1.416357        2.653257  -0.000048  -0.000000
    350          1.440340        2.658864  -0.000018  -0.000000
    351          1.478413        2.681272  -0.000004  -0.000000
    352          1.508582        2.682784  -0.000001  -0.000000
    353          1.521199        2.699217  -0.000000  -0.000000
    354          1.543411        2.733615  -0.000000  -0.000000
    355          1.560192        2.741850  -0.000000  -0.000000
    356          1.598562        2.744437  -0.000000  -0.000000
    357          1.606564        2.755306  -0.000000  -0.000000
    358          1.638992        2.787919  -0.000000  -0.000000
    359          1.667201        2.815558  -0.000000  -0.000000
    360          1.692080        2.829822  -0.000000  -0.000000
    361          1.712380        2.841929  -0.000000  -0.000000
    362          1.732015        2.883772  -0.000000  -0.000000
    363          1.788298        2.897935  -0.000000  -0.000000
    364          1.839164        2.954422  -0.000000  -0.000000
    365          1.873410        2.970613  -0.000000  -0.000000
    366          1.892005        2.975459  -0.000000  -0.000000
    367          1.926594        2.993355  -0.000000  -0.000000
    368          1.934519        3.014741  -0.000000  -0.000000
    369          1.961778        3.049198  -0.000000  -0.000000
 
  0.2500000E+00  0.6721729E-20  0.0000000E+00  0.1250000E+00
      1        -42.835704      -43.430032   1.000000   1.000000
      2        -42.817169      -43.380161   1.000000   1.000000
      3        -42.802951      -43.370977   1.000000   1.000000
      4        -42.797180      -43.358165   1.000000   1.000000
      5        -42.769813      -43.350719   1.000000   1.000000
      6        -42.756608      -43.346375   1.000000   1.000000
      7        -42.734919      -43.307210   1.000000   1.000000
      8        -42.731189      -43.291333   1.000000   1.000000
      9        -42.721609      -43.248686   1.000000   1.000000
     10        -42.343768      -43.220685   1.000000   1.000000
     11        -42.280628      -43.202503   1.000000   1.000000
     12        -42.232554      -43.191471   1.000000   1.000000
     13        -41.979020      -43.189902   1.000000   1.000000
     14        -41.956967      -43.177393   1.000000   1.000000
     15        -41.898092      -43.173029   1.000000   1.000000
     16        -41.876068      -43.158461   1.000000   1.000000
     17        -41.863690      -43.129830   1.000000   1.000000
     18        -41.861844      -43.115780   1.000000   1.000000
     19        -41.841054      -43.080108   1.000000   1.000000
     20        -41.837278      -43.070538   1.000000   1.000000
     21        -41.836484      -43.048551   1.000000   1.000000
     22        -41.820391      -42.985680   1.000000   1.000000
     23        -41.814970      -42.903480   1.000000   1.000000
     24        -41.811833      -42.888018   1.000000   1.000000
     25        -41.798255      -42.814924   1.000000   1.000000
     26        -41.789762      -42.790649   1.000000   1.000000
     27        -41.777366      -42.726522   1.000000   1.000000
     28        -41.767210      -41.584248   1.000000   1.000000
     29        -41.751974      -41.499931   1.000000   1.000000
     30        -41.748237      -41.441129   1.000000   1.000000
     31        -41.667424      -40.471168   1.000000   1.000000
     32        -41.646821      -40.464065   1.000000   1.000000
     33        -41.635483      -40.151800   1.000000   1.000000
     34        -40.363498      -40.035486   1.000000   1.000000
     35        -40.298538      -39.939501   1.000000   1.000000
     36        -40.249269      -39.938109   1.000000   1.000000
     37        -40.243495      -39.811346   1.000000   1.000000
     38        -40.188615      -39.747922   1.000000   1.000000
     39        -40.125816      -39.646467   1.000000   1.000000
     40        -15.521511      -15.557912   1.000000   1.000000
     41        -15.520068      -15.554246   1.000000   1.000000
     42        -15.515150      -15.548327   1.000000   1.000000
     43        -15.477992      -15.515100   1.000000   1.000000
     44        -15.467860      -15.509341   1.000000   1.000000
     45         -7.640513       -7.712733   1.000000   1.000000
     46         -7.077902       -6.987007   1.000000   1.000000
     47         -6.075694       -5.942499   1.000000   1.000000
     48         -6.050595       -5.913217   1.000000   1.000000
     49         -5.243891       -5.026956   1.000000   1.000000
     50         -5.146279       -4.976683   1.000000   1.000000
     51         -5.073012       -4.912955   1.000000   1.000000
     52         -4.789807       -4.516822   1.000000   1.000000
     53         -4.539555       -4.227081   1.000000   1.000000
     54         -4.499494       -4.199758   1.000000   1.000000
     55         -4.481370       -4.172696   1.000000   1.000000
     56         -4.404178       -4.144482   1.000000   1.000000
     57         -4.374885       -4.086473   1.000000   1.000000
     58         -4.257636       -3.836003   1.000000   1.000000
     59         -4.136645       -3.604648   1.000000   1.000000
     60         -4.042464       -3.439516   1.000000   1.000000
     61         -3.991737       -3.390198   1.000000   1.000000
     62         -3.968144       -3.328906   1.000000   1.000000
     63         -3.900841       -3.314153   1.000000   1.000000
     64         -3.861836       -3.278257   1.000000   1.000000
     65         -3.833210       -3.258107   1.000000   1.000000
     66         -3.805686       -3.145184   1.000000   1.000000
     67         -3.761847       -3.124047   1.000000   1.000000
     68         -3.723158       -2.923777   1.000000   1.000000
     69         -3.674896       -2.863976   1.000000   1.000000
     70         -3.618380       -2.826414   1.000000   1.000000
     71         -3.583238       -2.793090   1.000000   1.000000
     72         -3.556715       -2.670026   1.000000   1.000000
     73         -3.554852       -2.644121   1.000000   1.000000
     74         -3.538288       -2.614781   1.000000   1.000000
     75         -3.496457       -2.600214   1.000000   1.000000
     76         -3.483093       -2.551307   1.000000   1.000000
     77         -3.469912       -2.508632   1.000000   1.000000
     78         -3.437256       -2.490914   1.000000   1.000000
     79         -3.386157       -2.444169   1.000000   1.000000
     80         -3.354124       -2.379691   1.000000   1.000000
     81         -3.307008       -2.337908   1.000000   1.000000
     82         -3.288298       -2.295862   1.000000   1.000000
     83         -3.264998       -2.284904   1.000000   1.000000
     84         -3.253835       -2.243699   1.000000   1.000000
     85         -3.243757       -2.179268   1.000000   1.000000
     86         -3.235754       -2.142400   1.000000   1.000000
     87         -3.218809       -2.119299   1.000000   1.000000
     88         -3.205778       -2.093257   1.000000   1.000000
     89         -3.182730       -2.059622   1.000000   1.000000
     90         -3.174716       -2.034035   1.000000   1.000000
     91         -3.155701       -2.004189   1.000000   1.000000
     92         -3.138732       -1.981073   1.000000   1.000000
     93         -3.121474       -1.954711   1.000000   1.000000
     94         -3.098538       -1.944545   1.000000   1.000000