       N       E                     dE             d eps       ncg     rms          rms(c)
DAV:   1     0.553189908959E+04    0.55319E+04   -0.23819E+05 15672   0.144E+03
DAV:   2    -0.660854226640E+02   -0.55980E+04   -0.54011E+04 14760   0.421E+02
DAV:   3    -0.520275407728E+03   -0.45419E+03   -0.40283E+03 15141   0.163E+02
DAV:   4    -0.578367461064E+03   -0.58092E+02   -0.54548E+02 26096   0.451E+01
DAV:   5    -0.581461642462E+03   -0.30942E+01   -0.29349E+01 24136   0.104E+01    0.930E+01
DAV:   6    -0.765165106730E+03   -0.18370E+03   -0.38013E+02 27032   0.949E+01    0.157E+02
DAV:   7    -0.675077414126E+03    0.90088E+02   -0.47815E+02 27520   0.115E+02    0.143E+02
DAV:   8    -0.546077667443E+03    0.12900E+03   -0.21402E+02 27080   0.801E+01    0.873E+01
DAV:   9    -0.530767867126E+03    0.15310E+02   -0.75780E+01 25320   0.373E+01    0.681E+01
DAV:  10    -0.516093613486E+03    0.14674E+02   -0.51651E+01 24120   0.275E+01    0.634E+01
DAV:  11    -0.495666485701E+03    0.20427E+02   -0.67545E+01 22136   0.333E+01    0.449E+01
DAV:  12    -0.492168775060E+03    0.34977E+01   -0.35900E+01 20896   0.210E+01    0.370E+01
DAV:  13    -0.492183263952E+03   -0.14489E-01   -0.53544E+00 20784   0.887E+00    0.343E+01
DAV:  14    -0.492134043199E+03    0.49221E-01   -0.60833E-01 22968   0.212E+00    0.347E+01
DAV:  15    -0.493358961181E+03   -0.12249E+01   -0.98095E-01 25464   0.352E+00    0.337E+01
DAV:  16    -0.496142126751E+03   -0.27832E+01   -0.33127E+00 25296   0.664E+00    0.315E+01
DAV:  17    -0.498796390785E+03   -0.26543E+01   -0.68277E+00 24952   0.968E+00    0.267E+01
DAV:  18    -0.500303765973E+03   -0.15074E+01   -0.28761E+00 23928   0.597E+00    0.242E+01
DAV:  19    -0.500745898987E+03   -0.44213E+00   -0.76437E-01 23856   0.308E+00    0.235E+01
DAV:  20    -0.501167307233E+03   -0.42141E+00   -0.57641E-01 25304   0.249E+00    0.223E+01
DAV:  21    -0.501484509756E+03   -0.31720E+00   -0.16677E+00 25800   0.553E+00    0.181E+01
DAV:  22    -0.501506331646E+03   -0.21822E-01   -0.95529E-01 24488   0.380E+00    0.159E+01
DAV:  23    -0.501625121566E+03   -0.11879E+00   -0.44765E-01 25032   0.253E+00    0.154E+01
DAV:  24    -0.501742749488E+03   -0.11763E+00   -0.24885E-01 24672   0.212E+00    0.141E+01
DAV:  25    -0.502177137756E+03   -0.43439E+00   -0.81823E-01 26280   0.304E+00    0.125E+01
DAV:  26    -0.502541320998E+03   -0.36418E+00   -0.85934E-01 25600   0.276E+00    0.107E+01
DAV:  27    -0.502948851749E+03   -0.40753E+00   -0.12414E+00 25376   0.294E+00    0.850E+00
DAV:  28    -0.503026525646E+03   -0.77674E-01   -0.29525E-01 24592   0.184E+00    0.763E+00
DAV:  29    -0.503182004469E+03   -0.15548E+00   -0.50465E-01 25888   0.204E+00    0.610E+00
DAV:  30    -0.503216151518E+03   -0.34147E-01   -0.54192E-01 24776   0.188E+00    0.488E+00
DAV:  31    -0.503212679076E+03    0.34724E-02   -0.75248E-02 23488   0.116E+00    0.425E+00
DAV:  32    -0.503228482819E+03   -0.15804E-01   -0.46530E-02 24128   0.717E-01    0.372E+00
DAV:  33    -0.503261559116E+03   -0.33076E-01   -0.14826E-01 25728   0.126E+00    0.319E+00
DAV:  34    -0.503278939244E+03   -0.17380E-01   -0.51345E-02 23208   0.669E-01    0.286E+00
DAV:  35    -0.503296026216E+03   -0.17087E-01   -0.21806E-02 25400   0.469E-01    0.260E+00
DAV:  36    -0.503323416657E+03   -0.27390E-01   -0.50039E-02 25752   0.603E-01    0.229E+00
DAV:  37    -0.503336478159E+03   -0.13062E-01   -0.33989E-02 24552   0.506E-01    0.213E+00
DAV:  38    -0.503341879703E+03   -0.54015E-02   -0.18683E-02 23728   0.386E-01    0.193E+00
DAV:  39    -0.503350887466E+03   -0.90078E-02   -0.39073E-02 24952   0.578E-01    0.150E+00
DAV:  40    -0.503357555248E+03   -0.66678E-02   -0.29854E-02 24960   0.436E-01    0.109E+00
DAV:  41    -0.503358529136E+03   -0.97389E-03   -0.57914E-03 24232   0.288E-01    0.926E-01
DAV:  42    -0.503359179663E+03   -0.65053E-03   -0.57618E-03 25104   0.240E-01    0.754E-01
DAV:  43    -0.503359140397E+03    0.39266E-04   -0.57831E-03 25616   0.277E-01    0.553E-01
DAV:  44    -0.503359575094E+03   -0.43470E-03   -0.25229E-03 23160   0.134E-01    0.471E-01
DAV:  45    -0.503359577230E+03   -0.21361E-05   -0.14851E-03 24856   0.129E-01    0.359E-01
DAV:  46    -0.503359632183E+03   -0.54953E-04   -0.10812E-03 24464   0.133E-01    0.264E-01
DAV:  47    -0.503359809058E+03   -0.17688E-03   -0.82304E-04 23704   0.995E-02    0.202E-01
DAV:  48    -0.503359855248E+03   -0.46190E-04   -0.35741E-04 24216   0.526E-02    0.169E-01
DAV:  49    -0.503359905380E+03   -0.50131E-04   -0.21146E-04 24184   0.511E-02    0.124E-01
DAV:  50    -0.503359965273E+03   -0.59894E-04   -0.15407E-04 21080   0.496E-02    0.112E-01
DAV:  51    -0.503359960325E+03    0.49480E-05   -0.20106E-04 22776   0.423E-02    0.776E-02
DAV:  52    -0.503359972601E+03   -0.12275E-04   -0.62524E-05 17168   0.294E-02    0.540E-02
DAV:  53    -0.503359985039E+03   -0.12438E-04   -0.20148E-05 10392   0.197E-02    0.402E-02
DAV:  54    -0.503359996055E+03   -0.11016E-04   -0.45311E-05 16352   0.181E-02    0.302E-02
DAV:  55    -0.503360000861E+03   -0.48055E-05   -0.14747E-05  9472   0.967E-03
   1 F= -.50336000E+03 E0= -.50336423E+03  d E =-.503360E+03  mag=   106.0495
       N       E                     dE             d eps       ncg     rms          rms(c)
DAV:   1    -0.502751155863E+03    0.60884E+00   -0.47226E+02 15280   0.243E+01    0.857E+00
DAV:   2    -0.504211539353E+03   -0.14604E+01   -0.10058E+01 23368   0.107E+01    0.105E+01
DAV:   3    -0.505414800358E+03   -0.12033E+01   -0.73750E+00 25832   0.151E+01    0.164E+01
DAV:   4    -0.503822002005E+03    0.15928E+01   -0.26062E+00 27464   0.911E+00    0.513E+00
DAV:   5    -0.503930770304E+03   -0.10877E+00   -0.16417E-01 24712   0.232E+00    0.398E+00
DAV:   6    -0.504060124029E+03   -0.12935E+00   -0.15258E-01 23088   0.221E+00    0.234E+00
DAV:   7    -0.504079623010E+03   -0.19499E-01   -0.42610E-02 22832   0.103E+00    0.133E+00
DAV:   8    -0.504077871444E+03    0.17516E-02   -0.95831E-03 23136   0.429E-01    0.112E+00
DAV:   9    -0.504075757942E+03    0.21135E-02   -0.28697E-03 22088   0.260E-01    0.977E-01
DAV:  10    -0.504071813168E+03    0.39448E-02   -0.40208E-03 23472   0.243E-01    0.689E-01
DAV:  11    -0.504068681332E+03    0.31318E-02   -0.53215E-03 22424   0.259E-01    0.441E-01
DAV:  12    -0.504068682865E+03   -0.15327E-05   -0.14004E-03 18424   0.131E-01    0.414E-01
DAV:  13    -0.504068574319E+03    0.10855E-03   -0.66373E-04 22672   0.955E-02    0.262E-01
DAV:  14    -0.504068670516E+03   -0.96197E-04   -0.51774E-04 24008   0.905E-02    0.139E-01
DAV:  15    -0.504068721312E+03   -0.50795E-04   -0.14852E-04 20424   0.507E-02    0.117E-01
DAV:  16    -0.504068724615E+03   -0.33032E-05   -0.60467E-05 17792   0.371E-02
   2 F= -.50406872E+03 E0= -.50407300E+03  d E =-.708724E+00  mag=   106.0274
       N       E                     dE             d eps       ncg     rms          rms(c)
DAV:   1    -0.503989199616E+03    0.79522E-01   -0.20330E+01 14920   0.454E+00    0.179E+00
DAV:   2    -0.504081121518E+03   -0.91922E-01   -0.75853E-01 23616   0.192E+00    0.195E+00
DAV:   3    -0.504127791479E+03   -0.46670E-01   -0.29262E-01 24928   0.273E+00    0.320E+00
DAV:   4    -0.504075304119E+03    0.52487E-01   -0.12249E-01 26576   0.176E+00    0.113E+00
DAV:   5    -0.504084417016E+03   -0.91129E-02   -0.93283E-03 25912   0.584E-01    0.902E-01
DAV:   6    -0.504088979663E+03   -0.45626E-02   -0.11032E-02 23288   0.631E-01    0.399E-01
DAV:   7    -0.504089209455E+03   -0.22979E-03   -0.20731E-03 20568   0.188E-01    0.283E-01
DAV:   8    -0.504089076899E+03    0.13256E-03   -0.29638E-04 23328   0.782E-02    0.227E-01
DAV:   9    -0.504088999545E+03    0.77354E-04   -0.28976E-04 22856   0.646E-02    0.187E-01
DAV:  10    -0.504088973327E+03    0.26218E-04   -0.35715E-04 22424   0.632E-02    0.173E-01
DAV:  11    -0.504088911274E+03    0.62053E-04   -0.13775E-04 17704   0.506E-02    0.129E-01
DAV:  12    -0.504088862561E+03    0.48714E-04   -0.73301E-05 11952   0.477E-02    0.616E-02
DAV:  13    -0.504088882630E+03   -0.20070E-04   -0.12588E-04 20432   0.360E-02    0.405E-02
DAV:  14    -0.504088891024E+03   -0.83941E-05   -0.29703E-05 11248   0.192E-02
   3 F= -.50408889E+03 E0= -.50409320E+03  d E =-.728890E+00  mag=   106.0105
       N       E                     dE             d eps       ncg     rms          rms(c)
DAV:   1    -0.504042188452E+03    0.46694E-01   -0.19541E+01 14840   0.659E+00    0.221E+00
DAV:   2    -0.504184457721E+03   -0.14227E+00   -0.76728E-01 24160   0.321E+00    0.369E+00
DAV:   3    -0.504143981967E+03    0.40476E-01   -0.51773E-01 24040   0.353E+00    0.283E+00
DAV:   4    -0.504128948119E+03    0.15034E-01   -0.69429E-02 23399   0.133E+00    0.158E+00
DAV:   5    -0.504136655712E+03   -0.77076E-02   -0.17229E-02 23136   0.880E-01    0.990E-01
DAV:   6    -0.504144784016E+03   -0.81283E-02   -0.11955E-02 22152   0.518E-01    0.493E-01
DAV:   7    -0.504145300902E+03   -0.51689E-03   -0.25181E-03 20392   0.234E-01    0.361E-01
DAV:   8    -0.504145207469E+03    0.93433E-04   -0.44603E-04 23864   0.852E-02    0.339E-01
DAV:   9    -0.504145055221E+03    0.15225E-03   -0.49658E-04 24592   0.865E-02    0.299E-01
DAV:  10    -0.504144752134E+03    0.30309E-03   -0.85869E-04 23024   0.102E-01    0.190E-01
DAV:  11    -0.504144666435E+03    0.85699E-04   -0.18593E-04 23544   0.580E-02    0.141E-01
DAV:  12    -0.504144653024E+03    0.13411E-04   -0.19273E-04 18272   0.618E-02    0.108E-01
DAV:  13    -0.504144706770E+03   -0.53746E-04   -0.31613E-04 22232   0.433E-02    0.897E-02
DAV:  14    -0.504144690732E+03    0.16038E-04   -0.39647E-05 13640   0.307E-02    0.657E-02
DAV:  15    -0.504144679269E+03    0.11464E-04   -0.21325E-05  8584   0.272E-02    0.372E-02
DAV:  16    -0.504144691067E+03   -0.11798E-04   -0.57668E-05 16312   0.242E-02    0.362E-02
DAV:  17    -0.504144692834E+03   -0.17673E-05   -0.23717E-05 10080   0.154E-02
   4 F= -.50414469E+03 E0= -.50414864E+03  d E =-.558018E-01  mag=   106.0478
       N       E                     dE             d eps       ncg     rms          rms(c)
DAV:   1    -0.504058018164E+03    0.86673E-01   -0.19931E+01 14760   0.665E+00    0.223E+00
DAV:   2    -0.504195070769E+03   -0.13705E+00   -0.76420E-01 24248   0.313E+00    0.357E+00
DAV:   3    -0.504165826282E+03    0.29244E-01   -0.50666E-01 24128   0.350E+00    0.294E+00
DAV:   4    -0.504145851205E+03    0.19975E-01   -0.78490E-02 23550   0.142E+00    0.158E+00
DAV:   5    -0.504154788714E+03   -0.89375E-02   -0.16878E-02 23136   0.862E-01    0.101E+00
DAV:   6    -0.504162879644E+03   -0.80909E-02   -0.12345E-02 22168   0.550E-01    0.499E-01
DAV:   7    -0.504163482585E+03   -0.60294E-03   -0.27103E-03 20800   0.236E-01    0.360E-01
DAV:   8    -0.504163413910E+03    0.68675E-04   -0.45598E-04 23520   0.828E-02    0.341E-01
DAV:   9    -0.504163268388E+03    0.14552E-03   -0.46849E-04 24064   0.835E-02    0.293E-01
DAV:  10    -0.504162973349E+03    0.29504E-03   -0.82510E-04 23168   0.105E-01    0.181E-01
DAV:  11    -0.504162911646E+03    0.61702E-04   -0.18298E-04 23248   0.558E-02    0.139E-01
DAV:  12    -0.504162922465E+03   -0.10819E-04   -0.16867E-04 18335   0.564E-02    0.114E-01
DAV:  13    -0.504162966680E+03   -0.44215E-04   -0.28036E-04 21960   0.432E-02    0.842E-02
DAV:  14    -0.504162953994E+03    0.12687E-04   -0.31134E-05 11264   0.284E-02    0.609E-02
DAV:  15    -0.504162946393E+03    0.76003E-05   -0.19908E-05  8672   0.248E-02
   5 F= -.50416295E+03 E0= -.50416659E+03  d E =-.740554E-01  mag=   106.0584
       N       E                     dE             d eps       ncg     rms          rms(c)
DAV:   1    -0.504142842771E+03    0.20111E-01   -0.45886E+00 14761   0.369E+00    0.935E-01
DAV:   2    -0.504166301398E+03   -0.23459E-01   -0.21347E-01 15572   0.108E+00    0.703E-01
DAV:   3    -0.504170104834E+03   -0.38034E-02   -0.11229E-02 23512   0.470E-01    0.771E-01
DAV:   4    -0.504176494143E+03   -0.63893E-02   -0.31933E-02 25912   0.861E-01    0.115E+00
DAV:   5    -0.504171896783E+03    0.45974E-02   -0.28889E-02 26816   0.860E-01    0.547E-01
DAV:   6    -0.504172267968E+03   -0.37119E-03   -0.35055E-03 26382   0.338E-01    0.188E-01
DAV:   7    -0.504172440401E+03   -0.17243E-03   -0.73066E-04 21072   0.100E-01    0.132E-01
DAV:   8    -0.504172441372E+03   -0.97101E-06   -0.87166E-05 17478   0.371E-02
   6 F= -.50417244E+03 E0= -.50417615E+03  d E =-.949498E-02  mag=   106.0586
       N       E                     dE             d eps       ncg     rms          rms(c)
DAV:   1    -0.504033276178E+03    0.13916E+00   -0.21170E+01 14757   0.795E+00    0.204E+00
DAV:   2    -0.504150917538E+03   -0.11764E+00   -0.10750E+00 15640   0.236E+00    0.154E+00
DAV:   3    -0.504200641542E+03   -0.49724E-01   -0.13662E-01 24712   0.191E+00    0.276E+00
DAV:   4    -0.504167216233E+03    0.33425E-01   -0.17977E-01 25600   0.200E+00    0.155E+00
DAV:   5    -0.504172575203E+03   -0.53590E-02   -0.18489E-02 26504   0.641E-01    0.103E+00
DAV:   6    -0.504178480369E+03   -0.59052E-02   -0.12102E-02 24791   0.661E-01    0.519E-01
DAV:   7    -0.504178536697E+03   -0.56328E-04   -0.43537E-03 22352   0.318E-01    0.341E-01
DAV:   8    -0.504178467976E+03    0.68720E-04   -0.64436E-04 22936   0.910E-02    0.319E-01
DAV:   9    -0.504178248010E+03    0.21997E-03   -0.36578E-04 21824   0.822E-02    0.259E-01
DAV:  10    -0.504177961299E+03    0.28671E-03   -0.12541E-03 23400   0.138E-01    0.174E-01
DAV:  11    -0.504177986288E+03   -0.24989E-04   -0.33869E-04 20816   0.588E-02    0.144E-01
DAV:  12    -0.504177968275E+03    0.18013E-04   -0.75152E-05 16096   0.443E-02    0.942E-02
DAV:  13    -0.504178046124E+03   -0.77849E-04   -0.19885E-04 20608   0.530E-02    0.753E-02
DAV:  14    -0.504178059420E+03   -0.13296E-04   -0.64183E-05 15528   0.252E-02    0.624E-02
DAV:  15    -0.504178049080E+03    0.10339E-04   -0.84706E-06  8328   0.169E-02    0.456E-02
DAV:  16    -0.504178044028E+03    0.50529E-05   -0.13567E-05  8880   0.194E-02
   7 F= -.50417804E+03 E0= -.50418189E+03  d E =-.150976E-01  mag=   106.0464
       N       E                     dE             d eps       ncg     rms          rms(c)
DAV:   1    -0.504173054955E+03    0.49941E-02   -0.89668E-01 14768   0.163E+00    0.409E-01
DAV:   2    -0.504177357603E+03   -0.43026E-02   -0.38713E-02 15606   0.467E-01    0.321E-01
DAV:   3    -0.504179779896E+03   -0.24223E-02   -0.69801E-03 25975   0.398E-01    0.638E-01
DAV:   4    -0.504178123635E+03    0.16563E-02   -0.90857E-03 26056   0.466E-01    0.326E-01
DAV:   5    -0.504178365075E+03   -0.24144E-03   -0.18125E-03 25174   0.248E-01    0.218E-01
DAV:   6    -0.504178488116E+03   -0.12304E-03   -0.48899E-04 23496   0.127E-01    0.838E-02
DAV:   7    -0.504178508687E+03   -0.20572E-04   -0.12989E-04 18464   0.408E-02    0.621E-02
DAV:   8    -0.504178505940E+03    0.27473E-05   -0.16430E-05  9256   0.167E-02
   8 F= -.50417851E+03 E0= -.50418232E+03  d E =-.155595E-01  mag=   106.0477
       N       E                     dE             d eps       ncg     rms          rms(c)
DAV:   1    -0.504158484763E+03    0.20024E-01   -0.30603E+00 14853   0.338E+00    0.102E+00
DAV:   2    -0.504176677379E+03   -0.18193E-01   -0.13198E-01 16964   0.101E+00    0.999E-01
DAV:   3    -0.504191363413E+03   -0.14686E-01   -0.70278E-02 23856   0.137E+00    0.174E+00
DAV:   4    -0.504178596476E+03    0.12767E-01   -0.42719E-02 25088   0.105E+00    0.587E-01
DAV:   5    -0.504183052134E+03   -0.44557E-02   -0.69550E-03 26375   0.494E-01    0.534E-01
DAV:   6    -0.504182518247E+03    0.53389E-03   -0.27046E-03 25080   0.336E-01    0.241E-01
DAV:   7    -0.504182551355E+03   -0.33108E-04   -0.73761E-04 20192   0.103E-01    0.155E-01
DAV:   8    -0.504182502284E+03    0.49071E-04   -0.16289E-04 19296   0.513E-02    0.110E-01
DAV:   9    -0.504182491987E+03    0.10297E-04   -0.95210E-05 16728   0.306E-02    0.848E-02
DAV:  10    -0.504182473368E+03    0.18619E-04   -0.83860E-05 20184   0.295E-02    0.589E-02
DAV:  11    -0.504182472923E+03    0.44506E-06   -0.22756E-05  9872   0.270E-02
   9 F= -.50418247E+03 E0= -.50418646E+03  d E =-.396698E-02  mag=   106.1014
       N       E                     dE             d eps       ncg     rms          rms(c)
DAV:   1    -0.504151252496E+03    0.31221E-01   -0.41150E+00 14878   0.392E+00    0.118E+00
DAV:   2    -0.504173193824E+03   -0.21941E-01   -0.17439E-01 15658   0.106E+00    0.919E-01
DAV:   3    -0.504199115052E+03   -0.25921E-01   -0.61604E-02 27072   0.121E+00    0.202E+00
DAV:   4    -0.504179354314E+03    0.19761E-01   -0.71300E-02 27112   0.134E+00    0.776E-01
DAV:   5    -0.504184271490E+03   -0.49172E-02   -0.13239E-02 27176   0.661E-01    0.629E-01
DAV:   6    -0.504183444567E+03    0.82692E-03   -0.43867E-03 24160   0.424E-01    0.211E-01
DAV:   7    -0.504183604004E+03   -0.15944E-03   -0.11159E-03 18376   0.126E-01    0.175E-01
DAV:   8    -0.504183575656E+03    0.28348E-04   -0.15683E-04 21448   0.506E-02    0.145E-01
DAV:   9    -0.504183546550E+03    0.29106E-04   -0.10355E-04 21032   0.334E-02    0.107E-01
DAV:  10    -0.504183533249E+03    0.13301E-04   -0.12842E-04 21984   0.383E-02    0.797E-02
DAV:  11    -0.504183530560E+03    0.26886E-05   -0.23771E-05 10816   0.273E-02
  10 F= -.50418353E+03 E0= -.50418774E+03  d E =-.502462E-02  mag=   106.1563
       N       E                     dE             d eps       ncg     rms          rms(c)
DAV:   1    -0.504183259625E+03    0.27362E-03   -0.45784E-02 14934   0.413E-01    0.133E-01
DAV:   2    -0.504184653422E+03   -0.13938E-02   -0.46404E-03 26272   0.297E-01    0.431E-01
DAV:   3    -0.504183459505E+03    0.11939E-02   -0.31431E-03 24432   0.286E-01    0.106E-01
DAV:   4    -0.504183594367E+03   -0.13486E-03   -0.17412E-04 17048   0.428E-02    0.922E-02
DAV:   5    -0.504183621479E+03   -0.27113E-04   -0.59447E-05 14102   0.593E-02    0.550E-02
DAV:   6    -0.504183631455E+03   -0.99760E-05   -0.16829E-05 10704   0.315E-02
  11 F= -.50418363E+03 E0= -.50418782E+03  d E =-.512552E-02  mag=   106.1471
       N       E                     dE             d eps       ncg     rms          rms(c)
DAV:   1    -0.504176962459E+03    0.66590E-02   -0.82343E-01 14854   0.175E+00    0.528E-01
DAV:   2    -0.504181384642E+03   -0.44222E-02   -0.35073E-02 15642   0.480E-01    0.426E-01
DAV:   3    -0.504187744939E+03   -0.63603E-02   -0.16867E-02 26584   0.641E-01    0.102E+00
DAV:   4    -0.504182344746E+03    0.54002E-02   -0.17922E-02 26488   0.645E-01    0.338E-01
DAV:   5    -0.504183578760E+03   -0.12340E-02   -0.24867E-03 26560   0.294E-01    0.299E-01
DAV:   6    -0.504183414230E+03    0.16453E-03   -0.90927E-04 23800   0.192E-01    0.107E-01
DAV:   7    -0.504183442327E+03   -0.28096E-04   -0.24813E-04 18768   0.556E-02    0.728E-02
DAV:   8    -0.504183440356E+03    0.19709E-05   -0.31859E-05 12584   0.226E-02
  12 F= -.50418344E+03 E0= -.50418753E+03  d E =-.493442E-02  mag=   106.1229
       N       E                     dE             d eps       ncg     rms          rms(c)
DAV:   1    -0.504180300641E+03    0.31417E-02   -0.42720E-01 14861   0.126E+00    0.383E-01
DAV:   2    -0.504182967734E+03   -0.26671E-02   -0.18500E-02 17986   0.396E-01    0.407E-01
DAV:   3    -0.504184467331E+03   -0.14996E-02   -0.96309E-03 23704   0.514E-01    0.599E-01
DAV:   4    -0.504183117053E+03    0.13503E-02   -0.54451E-03 24616   0.377E-01    0.226E-01
DAV:   5    -0.504183673608E+03   -0.55656E-03   -0.96408E-04 24512   0.194E-01    0.187E-01
DAV:   6    -0.504183650330E+03    0.23278E-04   -0.36709E-04 24688   0.121E-01    0.732E-02
DAV:   7    -0.504183658516E+03   -0.81858E-05   -0.88993E-05 16944   0.351E-02
  13 F= -.50418366E+03 E0= -.50418783E+03  d E =-.515258E-02  mag=   106.1351
       N       E                     dE             d eps       ncg     rms          rms(c)
DAV:   1    -0.504180167839E+03    0.34825E-02   -0.52875E-01 14730   0.149E+00    0.432E-01
DAV:   2    -0.504182974203E+03   -0.28064E-02   -0.23726E-02 15498   0.419E-01    0.337E-01
DAV:   3    -0.504183693380E+03   -0.71918E-03   -0.18796E-03 22207   0.217E-01    0.359E-01
DAV:   4    -0.504185409121E+03   -0.17157E-02   -0.73718E-03 25672   0.418E-01    0.570E-01
DAV:   5    -0.504184200970E+03    0.12082E-02   -0.69608E-03 26256   0.426E-01    0.258E-01
DAV:   6    -0.504184247046E+03   -0.46077E-04   -0.79316E-04 25912   0.163E-01    0.996E-02
DAV:   7    -0.504184293814E+03   -0.46767E-04   -0.18729E-04 21328   0.534E-02    0.654E-02
DAV:   8    -0.504184290515E+03    0.32985E-05   -0.17210E-05  9592   0.176E-02
  14 F= -.50418429E+03 E0= -.50418849E+03  d E =-.631999E-03  mag=   106.1488
       N       E                     dE             d eps       ncg     rms          rms(c)
DAV:   1    -0.504182852319E+03    0.14415E-02   -0.18694E-01 14731   0.891E-01    0.260E-01
DAV:   2    -0.504183804909E+03   -0.95259E-03   -0.83433E-03 15500   0.243E-01    0.209E-01
DAV:   3    -0.504184612860E+03   -0.80795E-03   -0.19840E-03 24720   0.237E-01    0.362E-01
DAV:   4    -0.504184053934E+03    0.55893E-03   -0.26937E-03 23880   0.257E-01    0.206E-01
DAV:   5    -0.504184193191E+03   -0.13926E-03   -0.28351E-04 22592   0.814E-02    0.138E-01
DAV:   6    -0.504184250632E+03   -0.57442E-04   -0.22450E-04 24135   0.940E-02    0.831E-02
DAV:   7    -0.504184252861E+03   -0.22288E-05   -0.78777E-05 17472   0.439E-02
  15 F= -.50418425E+03 E0= -.50418847E+03  d E =-.594345E-03  mag=   106.1556
       N       E                     dE             d eps       ncg     rms          rms(c)
DAV:   1    -0.504184204985E+03    0.45647E-04   -0.80115E-03 14649   0.184E-01    0.796E-02
DAV:   2    -0.504184539029E+03   -0.33404E-03   -0.10176E-03 24352   0.148E-01    0.218E-01
DAV:   3    -0.504184247872E+03    0.29116E-03   -0.83956E-04 22128   0.148E-01    0.684E-02
DAV:   4    -0.504184275713E+03   -0.27841E-04   -0.45911E-05 15312   0.290E-02    0.582E-02
DAV:   5    -0.504184278198E+03   -0.24851E-05   -0.23309E-05 10543   0.389E-02
  16 F= -.50418428E+03 E0= -.50418849E+03  d E =-.619682E-03  mag=   106.1563
       N       E                     dE             d eps       ncg     rms          rms(c)
DAV:   1    -0.504182603392E+03    0.16723E-02   -0.20081E-01 15008   0.941E-01    0.285E-01
DAV:   2    -0.504183846953E+03   -0.12436E-02   -0.10120E-02 15482   0.242E-01    0.218E-01
DAV:   3    -0.504184150516E+03   -0.30356E-03   -0.44738E-04 23031   0.104E-01    0.184E-01
DAV:   4    -0.504185567509E+03   -0.14170E-02   -0.36100E-03 25760   0.310E-01    0.461E-01
DAV:   5    -0.504184317926E+03    0.12496E-02   -0.30890E-03 18576   0.267E-01    0.129E-01
DAV:   6    -0.504184432847E+03   -0.11492E-03   -0.23723E-04 23864   0.690E-02    0.636E-02
DAV:   7    -0.504184433092E+03   -0.24452E-06   -0.74579E-05 16984   0.445E-02
  17 F= -.50418443E+03 E0= -.50418871E+03  d E =-.154894E-03  mag=   106.1613
