<?xml version="1.0" encoding="ISO-8859-1"?>
<modeling>
 <generator>
  <i name="program" type="string">vasp </i>
  <i name="version" type="string">6.3.2  </i>
  <i name="subversion" type="string">27Jun22 (build Mar 15 2023 15:45:48) complex                          parallel </i>
  <i name="platform" type="string">LinuxIFC </i>
  <i name="date" type="string">2025 02 10 </i>
  <i name="time" type="string">10:35:34 </i>
 </generator>
 <incar>
  <i type="string" name="SYSTEM">ni3al</i>
  <i type="int" name="ISTART">     1</i>
  <i type="string" name="PREC">Accurate</i>
  <i type="string" name="ALGO">Normal</i>
  <i type="int" name="ISPIN">     2</i>
  <i type="int" name="IMIX">     4</i>
  <i name="AMIX">      0.05000000</i>
  <i name="BMIX">      0.00010000</i>
  <i name="AMIN">      0.01000000</i>
  <i type="int" name="ICHARG">     1</i>
  <i type="int" name="NELM">   150</i>
  <i type="int" name="IBRION">     2</i>
  <i name="EDIFF">      0.00001000</i>
  <i name="EDIFFG">     -0.02000000</i>
  <i type="int" name="NSW">   300</i>
  <i type="int" name="ISIF">     2</i>
  <i name="ENCUT">    450.00000000</i>
  <i type="string" name="LREAL">Auto</i>
  <i type="int" name="ISMEAR">     1</i>
  <i name="SIGMA">      0.15000000</i>
  <i type="int" name="LMAXMIX">     4</i>
  <i type="logical" name="LWAVE"> F  </i>
  <i type="logical" name="LCHARG"> F  </i>
  <i type="logical" name="LDIPOL"> T  </i>
  <i type="int" name="IDIPOL">     3</i>
 </incar>
 <primitive_cell>
  <structure name="primitive_cell" >
   <crystal>
    <varray name="basis" >
     <v>       8.53269958       0.00000000       0.00000000 </v>
     <v>      -0.00051933       8.49699972       0.00000000 </v>
     <v>       0.00000000       0.00000000      23.59499931 </v>
    </varray>
    <i name="volume">   1710.69280467 </i>
    <varray name="rec_basis" >
     <v>       0.11719620       0.00000716       0.00000000 </v>
     <v>       0.00000000       0.11768860       0.00000000 </v>
     <v>       0.00000000       0.00000000       0.04238186 </v>
    </varray>
   </crystal>
   <varray name="positions" >
    <v>       0.00086000       0.99993000       0.24271000 </v>
    <v>       0.16615160       0.16511008       0.30347168 </v>
    <v>       0.50665875       0.17101846       0.30449006 </v>
    <v>       0.66822000       0.00107000       0.24272000 </v>
    <v>       0.83369059       0.17159554       0.30349425 </v>
    <v>       0.00044000       0.33497000       0.24240000 </v>
    <v>       0.16637229       0.50100932       0.30416942 </v>
    <v>       0.33469000       0.33305000       0.24267000 </v>
    <v>       0.50417829       0.49833863       0.30292644 </v>
    <v>       0.82946616       0.49883706       0.30295867 </v>
    <v>       0.16855964       0.83458073       0.30469043 </v>
    <v>       0.33342000       0.66555000       0.24261000 </v>
    <v>       0.83582244       0.83262335       0.30368920 </v>
    <v>       0.00064000       0.00119000       0.00199000 </v>
    <v>       0.99643848       0.00394148       0.36126548 </v>
    <v>       0.16843000       0.16962000       0.06269000 </v>
    <v>       0.33460000       0.00297000       0.00254000 </v>
    <v>       0.33732413       0.00662429       0.36201239 </v>
    <v>       0.50463000       0.16850000       0.06120000 </v>
    <v>       0.83272000       0.16670000       0.06193000 </v>
    <v>       0.00004000       0.33467000       0.00213000 </v>
    <v>       0.00490451       0.33221797       0.36068329 </v>
    <v>       0.16757000       0.49895000       0.06268000 </v>
    <v>       0.50099000       0.49896000       0.06206000 </v>
    <v>       0.83393000       0.50234000       0.06235000 </v>
    <v>       0.00121000       0.66785000       0.00188000 </v>
    <v>       0.99553919       0.66398904       0.36014185 </v>
    <v>       0.16792000       0.83462000       0.06228000 </v>
    <v>       0.33437000       0.66664000       0.00225000 </v>
    <v>       0.33915947       0.66201745       0.36149755 </v>
    <v>       0.50152000       0.83563000       0.06217000 </v>
    <v>       0.66753000       0.66705000       0.00175000 </v>
    <v>       0.66272101       0.67309315       0.36099833 </v>
    <v>       0.83293000       0.83584000       0.06235000 </v>
    <v>       0.00121000       0.00098000       0.12225000 </v>
    <v>       0.16700000       0.16811000       0.18239000 </v>
    <v>       0.33470000       0.00227000       0.12192000 </v>
    <v>       0.50174000       0.16716000       0.18263000 </v>
    <v>       0.83421000       0.16639000       0.18283000 </v>
    <v>       0.16964000       0.49868000       0.18209000 </v>
    <v>       0.50219000       0.50081000       0.18317000 </v>
    <v>       0.66741000       0.33395000       0.12233000 </v>
    <v>       0.83134000       0.50253000       0.18283000 </v>
    <v>       0.00132000       0.66795000       0.12253000 </v>
    <v>       0.16898000       0.83509000       0.18243000 </v>
    <v>       0.33446000       0.66703000       0.12223000 </v>
    <v>       0.49971000       0.83538000       0.18278000 </v>
    <v>       0.66698000       0.66840000       0.12259000 </v>
    <v>       0.83488000       0.83403000       0.18294000 </v>
    <v>       0.33558000       0.99863000       0.24353000 </v>
    <v>       0.66801000       0.33262000       0.24229000 </v>
    <v>       0.00448000       0.66739000       0.24217000 </v>
    <v>       0.49635414       0.83421436       0.30120319 </v>
    <v>       0.66521000       0.67351000       0.24327000 </v>
    <v>       0.66620000       0.99680000       0.00000000 </v>
    <v>       0.66783683       0.99448462       0.36260661 </v>
    <v>       0.33213000       0.33386000       0.00135000 </v>
    <v>       0.33100801       0.33263928       0.36350500 </v>
    <v>       0.67040000       0.33673000       0.00321000 </v>
    <v>       0.66728000       0.99998000       0.12246000 </v>
    <v>       0.99806000       0.33495000       0.12235000 </v>
    <v>       0.33675000       0.33238000       0.12261000 </v>
    <v>       0.16856000       0.83458000       0.42000000 </v>
   </varray>
  </structure>
  <varray name="primitive_index" >
   <v type="int" >        1 </v>
   <v type="int" >        2 </v>
   <v type="int" >        3 </v>
   <v type="int" >        4 </v>
   <v type="int" >        5 </v>
   <v type="int" >        6 </v>
   <v type="int" >        7 </v>
   <v type="int" >        8 </v>
   <v type="int" >        9 </v>
   <v type="int" >       10 </v>
   <v type="int" >       11 </v>
   <v type="int" >       12 </v>
   <v type="int" >       13 </v>
   <v type="int" >       14 </v>
   <v type="int" >       15 </v>
   <v type="int" >       16 </v>
   <v type="int" >       17 </v>
   <v type="int" >       18 </v>
   <v type="int" >       19 </v>
   <v type="int" >       20 </v>
   <v type="int" >       21 </v>
   <v type="int" >       22 </v>
   <v type="int" >       23 </v>
   <v type="int" >       24 </v>
   <v type="int" >       25 </v>
   <v type="int" >       26 </v>
   <v type="int" >       27 </v>
   <v type="int" >       28 </v>
   <v type="int" >       29 </v>
   <v type="int" >       30 </v>
   <v type="int" >       31 </v>
   <v type="int" >       32 </v>
   <v type="int" >       33 </v>
   <v type="int" >       34 </v>
   <v type="int" >       35 </v>
   <v type="int" >       36 </v>
   <v type="int" >       37 </v>
   <v type="int" >       38 </v>
   <v type="int" >       39 </v>
   <v type="int" >       40 </v>
   <v type="int" >       41 </v>
   <v type="int" >       42 </v>
   <v type="int" >       43 </v>
   <v type="int" >       44 </v>
   <v type="int" >       45 </v>
   <v type="int" >       46 </v>
   <v type="int" >       47 </v>
   <v type="int" >       48 </v>
   <v type="int" >       49 </v>
   <v type="int" >       50 </v>
   <v type="int" >       51 </v>
   <v type="int" >       52 </v>
   <v type="int" >       53 </v>
   <v type="int" >       54 </v>
   <v type="int" >       55 </v>
   <v type="int" >       56 </v>
   <v type="int" >       57 </v>
   <v type="int" >       58 </v>
   <v type="int" >       59 </v>
   <v type="int" >       60 </v>
   <v type="int" >       61 </v>
   <v type="int" >       62 </v>
   <v type="int" >       63 </v>
  </varray>
 </primitive_cell>
 <kpoints>
  <generation param="Gamma">
   <v type="int" name="divisions">       4        4        1 </v>
   <v name="usershift">      0.00000000       0.00000000       0.00000000 </v>
   <v name="genvec1">      0.25000000       0.00000000       0.00000000 </v>
   <v name="genvec2">      0.00000000       0.25000000       0.00000000 </v>
   <v name="genvec3">      0.00000000       0.00000000       1.00000000 </v>
   <v name="shift">      0.00000000       0.00000000       0.00000000 </v>
  </generation>
  <varray name="kpointlist" >
   <v>       0.00000000       0.00000000       0.00000000 </v>
   <v>       0.25000000       0.00000000       0.00000000 </v>
   <v>       0.50000000       0.00000000       0.00000000 </v>
   <v>       0.00000000       0.25000000       0.00000000 </v>
   <v>       0.25000000       0.25000000       0.00000000 </v>
   <v>       0.50000000       0.25000000       0.00000000 </v>
   <v>      -0.25000000       0.25000000       0.00000000 </v>
   <v>       0.00000000       0.50000000       0.00000000 </v>
   <v>       0.25000000       0.50000000       0.00000000 </v>
   <v>       0.50000000       0.50000000       0.00000000 </v>
  </varray>
  <varray name="weights" >
   <v>       0.06250000 </v>
   <v>       0.12500000 </v>
   <v>       0.06250000 </v>
   <v>       0.12500000 </v>
   <v>       0.12500000 </v>
   <v>       0.12500000 </v>
   <v>       0.12500000 </v>
   <v>       0.06250000 </v>
   <v>       0.12500000 </v>
   <v>       0.06250000 </v>
  </varray>
 </kpoints>
 <parameters>
  <separator name="general" >
   <i type="string" name="SYSTEM">ni3al</i>
   <i type="logical" name="LCOMPAT"> F  </i>
  </separator>
  <separator name="electronic" >
   <i type="string" name="PREC">accura</i>
   <i name="ENMAX">    450.00000000</i>
   <i name="ENAUG">    519.42400000</i>
   <i name="EDIFF">      0.00001000</i>
   <i type="int" name="IALGO">    38</i>
   <i type="int" name="IWAVPR">    11</i>
   <i type="int" name="NBANDS">   369</i>
   <i type="int" name="NBANDSLOW">    -1</i>
   <i type="int" name="NBANDSHIGH">    -1</i>
   <i name="NELECT">    562.00000000</i>
   <i type="int" name="TURBO">     0</i>
   <i type="int" name="IRESTART">     0</i>
   <i type="int" name="NREBOOT">     0</i>
   <i type="int" name="NMIN">     0</i>
   <i name="EREF">      0.00000000</i>
   <separator name="electronic smearing" >
    <i type="int" name="ISMEAR">     1</i>
    <i name="SIGMA">      0.15000000</i>
    <i name="KSPACING">      0.50000000</i>
    <i type="logical" name="KGAMMA"> T  </i>
    <i type="logical" name="KBLOWUP"> T  </i>
   </separator>
   <separator name="electronic projectors" >
    <i type="logical" name="LREAL"> T  </i>
    <v name="ROPT">     -0.00025000     -0.00025000     -0.00025000</v>
    <i type="int" name="LMAXPAW">  -100</i>
    <i type="int" name="LMAXMIX">     4</i>
    <i type="logical" name="NLSPLINE"> F  </i>
   </separator>
   <separator name="electronic startup" >
    <i type="int" name="ISTART">     0</i>
    <i type="int" name="ICHARG">     1</i>
    <i type="int" name="INIWAV">     1</i>
   </separator>
   <separator name="electronic spin" >
    <i type="int" name="ISPIN">     2</i>
    <i type="logical" name="LNONCOLLINEAR"> F  </i>
    <v name="MAGMOM">      1.00000000      1.00000000      1.00000000      1.00000000      1.00000000      1.00000000      1.00000000      1.00000000      1.00000000      1.00000000      1.00000000      1.00000000      1.00000000      1.00000000      1.00000000      1.00000000      1.00000000      1.00000000      1.00000000      1.00000000
      1.00000000      1.00000000      1.00000000      1.00000000      1.00000000      1.00000000      1.00000000      1.00000000      1.00000000      1.00000000      1.00000000      1.00000000      1.00000000      1.00000000      1.00000000      1.00000000      1.00000000      1.00000000      1.00000000      1.00000000
      1.00000000      1.00000000      1.00000000      1.00000000      1.00000000      1.00000000      1.00000000      1.00000000      1.00000000      1.00000000      1.00000000      1.00000000      1.00000000      1.00000000      1.00000000      1.00000000      1.00000000      1.00000000      1.00000000      1.00000000
      1.00000000      1.00000000      1.00000000</v>
    <i name="NUPDOWN">     -1.00000000</i>
    <i type="logical" name="LSORBIT"> F  </i>
    <v name="SAXIS">      0.00000000      0.00000000      1.00000000</v>
    <i type="logical" name="LSPIRAL"> F  </i>
    <v name="QSPIRAL">      0.00000000      0.00000000      0.00000000</v>
    <i type="logical" name="LZEROZ"> F  </i>
   </separator>
   <separator name="electronic exchange-correlation" >
    <i type="logical" name="LASPH"> F  </i>
    <i type="logical" name="LMETAGGA"> F  </i>
   </separator>
   <separator name="electronic convergence" >
    <i type="int" name="NELM">   150</i>
    <i type="int" name="NELMDL">     0</i>
    <i type="int" name="NELMIN">     2</i>
    <i name="ENINI">    450.00000000</i>
    <separator name="electronic convergence detail" >
     <i type="logical" name="LDIAG"> T  </i>
     <i type="logical" name="LSUBROT"> F  </i>
     <i name="WEIMIN">      0.00100000</i>
     <i name="EBREAK">      0.00000001</i>
     <i name="DEPER">      0.30000000</i>
     <i type="int" name="NRMM">     4</i>
     <i name="TIME">      0.40000000</i>
    </separator>
   </separator>
   <separator name="electronic mixer" >
    <i name="AMIX">      0.05000000</i>
    <i name="BMIX">      0.00010000</i>
    <i name="AMIN">      0.01000000</i>
    <i name="AMIX_MAG">      0.20000000</i>
    <i name="BMIX_MAG">      0.00010000</i>
    <separator name="electronic mixer details" >
     <i type="int" name="IMIX">     4</i>
     <i type="logical" name="MIXFIRST"> F  </i>
     <i type="int" name="MAXMIX">   -45</i>
     <i name="WC">    100.00000000</i>
     <i type="int" name="INIMIX">     1</i>
     <i type="int" name="MIXPRE">     1</i>
     <i type="int" name="MREMOVE">     5</i>
    </separator>
   </separator>
   <separator name="electronic dipolcorrection" >
    <i type="logical" name="LDIPOL"> T  </i>
    <i type="logical" name="LMONO"> F  </i>
    <i type="int" name="IDIPOL">     3</i>
    <i name="EPSILON">      1.00000000</i>
    <v name="DIPOL">   -100.00000000   -100.00000000   -100.00000000</v>
    <i name="EFIELD">      0.00000000</i>
   </separator>
  </separator>
  <separator name="grids" >
   <i type="int" name="NGX">    60</i>
   <i type="int" name="NGY">    60</i>
   <i type="int" name="NGZ">   168</i>
   <i type="int" name="NGXF">   120</i>
   <i type="int" name="NGYF">   120</i>
   <i type="int" name="NGZF">   336</i>
   <i type="logical" name="ADDGRID"> F  </i>
  </separator>
  <separator name="ionic" >
   <i type="int" name="NSW">   300</i>
   <i type="int" name="IBRION">     2</i>
   <i type="int" name="MDALGO">     0</i>
   <i type="int" name="ISIF">     2</i>
   <i name="PSTRESS">      0.00000000</i>
   <i name="EDIFFG">     -0.02000000</i>
   <i type="int" name="NFREE">     1</i>
   <i name="POTIM">      0.50000000</i>
   <i name="SMASS">     -3.00000000</i>
   <i name="SCALEE">      1.00000000</i>
  </separator>
  <separator name="ionic md" >
   <i name="TEBEG">      0.00010000</i>
   <i name="TEEND">      0.00010000</i>
   <i type="int" name="NBLOCK">     1</i>
   <i type="int" name="KBLOCK">   300</i>
   <i type="int" name="NPACO">   256</i>
   <i name="APACO">     10.00000000</i>
  </separator>
  <separator name="symmetry" >
   <i type="int" name="ISYM">     2</i>
   <i name="SYMPREC">      0.00001000</i>
  </separator>
  <separator name="dos" >
   <i type="int" name="LORBIT">     0</i>
   <v name="RWIGS">     -1.00000000     -1.00000000     -1.00000000</v>
   <i type="int" name="NEDOS">   301</i>
   <i name="EMIN">     10.00000000</i>
   <i name="EMAX">    -10.00000000</i>
   <i name="EFERMI">      0.00000000</i>
  </separator>
  <separator name="writing" >
   <i type="int" name="NWRITE">     2</i>
   <i type="logical" name="LWAVE"> F  </i>
   <i type="logical" name="LDOWNSAMPLE"> F  </i>
   <i type="logical" name="LCHARG"> F  </i>
   <i type="logical" name="LPARD"> F  </i>
   <i type="logical" name="LVTOT"> F  </i>
   <i type="logical" name="LVHAR"> F  </i>
   <i type="logical" name="LELF"> F  </i>
   <i type="logical" name="LOPTICS"> F  </i>
   <v name="STM">      0.00000000      0.00000000      0.00000000      0.00000000      0.00000000      0.00000000      0.00000000</v>
  </separator>
  <separator name="performance" >
   <i type="int" name="NPAR">     1</i>
   <i type="int" name="NSIM">     4</i>
   <i type="int" name="NBLK">    -1</i>
   <i type="logical" name="LPLANE"> T  </i>
   <i type="logical" name="LSCALAPACK"> T  </i>
   <i type="logical" name="LSCAAWARE"> F  </i>
   <i type="logical" name="LSCALU"> F  </i>
   <i type="logical" name="LASYNC"> F  </i>
   <i type="logical" name="LORBITALREAL"> F  </i>
  </separator>
  <separator name="miscellaneous" >
   <i type="int" name="IDIOT">     3</i>
   <i type="int" name="PHON_NSTRUCT">    -1</i>
   <i type="logical" name="LMUSIC"> F  </i>
   <v name="POMASS">     55.84700000     51.99600000    207.20000000</v>
   <v name="DARWINR">      0.00000000      0.00000000      0.00000000</v>
   <v name="DARWINV">      1.00000000      1.00000000      1.00000000</v>
   <i type="logical" name="LCORR"> T  </i>
  </separator>
  <i type="logical" name="GGA_COMPAT"> T  </i>
  <i type="logical" name="LBERRY"> F  </i>
  <i type="int" name="ICORELEVEL">     0</i>
  <i type="logical" name="LDAU"> F  </i>
  <i type="int" name="I_CONSTRAINED_M">     0</i>
  <separator name="electronic exchange-correlation" >
   <i type="string" name="GGA">--</i>
   <i type="int" name="VOSKOWN">     0</i>
   <i type="logical" name="LHFCALC"> F  </i>
   <i type="string" name="PRECFOCK"></i>
   <i type="logical" name="LSYMGRAD"> F  </i>
   <i type="logical" name="LHFONE"> F  </i>
   <i type="logical" name="LRHFCALC"> F  </i>
   <i type="logical" name="LTHOMAS"> F  </i>
   <i type="logical" name="LMODELHF"> F  </i>
   <i type="logical" name="LFOCKACE"> F  </i>
   <i name="ENCUT4O">     -1.00000000</i>
   <i type="int" name="EXXOEP">     0</i>
   <i type="int" name="FOURORBIT">     0</i>
   <i name="AEXX">      0.00000000</i>
   <i name="HFALPHA">      0.00000000</i>
   <i name="MCALPHA">      0.00000000</i>
   <i name="ALDAX">      1.00000000</i>
   <i name="AGGAX">      1.00000000</i>
   <i name="ALDAC">      1.00000000</i>
   <i name="AGGAC">      1.00000000</i>
   <i type="int" name="NKREDX">     1</i>
   <i type="int" name="NKREDY">     1</i>
   <i type="int" name="NKREDZ">     1</i>
   <i type="logical" name="SHIFTRED"> F  </i>
   <i type="logical" name="ODDONLY"> F  </i>
   <i type="logical" name="EVENONLY"> F  </i>
   <i type="int" name="LMAXFOCK">     0</i>
   <i type="int" name="NMAXFOCKAE">     0</i>
   <i type="logical" name="LFOCKAEDFT"> F  </i>
   <i name="HFSCREEN">      0.00000000</i>
   <i name="HFSCREENC">      0.00000000</i>
   <i type="int" name="NBANDSGWLOW">     0</i>
  </separator>
  <separator name="vdW DFT" >
   <i type="logical" name="LUSE_VDW"> F  </i>
   <i name="Zab_VDW">     -0.84910000</i>
   <i name="PARAM1">      0.12340000</i>
   <i name="PARAM2">      1.00000000</i>
   <i name="PARAM3">      0.00000000</i>
  </separator>
  <separator name="model GW" >
   <i type="int" name="MODEL_GW">     0</i>
   <i name="MODEL_EPS0">     16.29231243</i>
   <i name="MODEL_ALPHA">      1.00000000</i>
  </separator>
  <separator name="linear response parameters" >
   <i type="logical" name="LEPSILON"> F  </i>
   <i type="logical" name="LRPA"> F  </i>
   <i type="logical" name="LNABLA"> F  </i>
   <i type="logical" name="LVEL"> F  </i>
   <i name="CSHIFT">      0.10000000</i>
   <i name="OMEGAMAX">     -1.00000000</i>
   <i name="DEG_THRESHOLD">      0.00200000</i>
   <i name="RTIME">     -0.10000000</i>
   <i name="WPLASMAI">      0.00000000</i>
   <v name="DFIELD">      0.00000000      0.00000000      0.00000000</v>
   <v name="WPLASMA">      0.00000000      0.00000000      0.00000000      0.00000000      0.00000000      0.00000000      0.00000000      0.00000000      0.00000000</v>
  </separator>
  <separator name="orbital magnetization" >
   <i type="logical" name="NUCIND"> F  </i>
   <v name="MAGPOS">      0.00000000      0.00000000      0.00000000</v>
   <i type="logical" name="LNICSALL"> T  </i>
   <i type="logical" name="ORBITALMAG"> F  </i>
   <i type="logical" name="LMAGBLOCH"> F  </i>
   <i type="logical" name="LCHIMAG"> F  </i>
   <i type="logical" name="LGAUGE"> T  </i>
   <i type="int" name="MAGATOM">     0</i>
   <v name="MAGDIPOL">      0.00000000      0.00000000      0.00000000</v>
   <v name="AVECCONST">      0.00000000      0.00000000      0.00000000</v>
  </separator>
  <separator name="response functions" >
   <i type="logical" name="LFINITE_TEMPERATURE"> F  </i>
   <i type="logical" name="LADDER"> F  </i>
   <i type="logical" name="LRPAFORCE"> F  </i>
   <i type="logical" name="LFXC"> F  </i>
   <i type="logical" name="LHARTREE"> T  </i>
   <i type="int" name="IBSE">     0</i>
   <v type="int" name="KPOINT">    -1     0     0     0</v>
   <i type="logical" name="LTCTC"> F  </i>
   <i type="logical" name="LTCTE"> F  </i>
   <i type="logical" name="LTETE"> F  </i>
   <i type="logical" name="LTRIPLET"> F  </i>
   <i type="logical" name="LFXCEPS"> F  </i>
   <i type="logical" name="LFXHEG"> F  </i>
   <i type="int" name="NATURALO">     2</i>
   <i type="logical" name="LHOLEGF"> F  </i>
   <i type="logical" name="L2ORDER"> F  </i>
   <i type="logical" name="LDMP1"> F  </i>
   <i type="logical" name="LMP2LT"> F  </i>
   <i type="logical" name="LSMP2LT"> F  </i>
   <i type="logical" name="LGWLF"> F  </i>
   <i name="ENCUTGW">     -2.00000000</i>
   <i name="ENCUTGWSOFT">     -2.00000000</i>
   <i name="ENCUTLF">     -1.00000000</i>
   <i type="logical" name="LESF_SPLINES"> F  </i>
   <i type="int" name="LMAXMP2">    -1</i>
   <i name="SCISSOR">      0.00000000</i>
   <i type="int" name="NOMEGA">     0</i>
   <i type="int" name="NOMEGAR">     0</i>
   <i type="int" name="NBANDSGW">    -1</i>
   <i type="int" name="NBANDSO">    -1</i>
   <i type="int" name="NBANDSV">    -1</i>
   <i type="int" name="NELMGW">     1</i>
   <i type="int" name="NELMHF">     1</i>
   <i type="int" name="DIM">     3</i>
   <i type="int" name="IESPILON">     4</i>
   <i type="int" name="ANTIRES">     0</i>
   <i name="OMEGAMAX">    -30.00000000</i>
   <i name="OMEGAMIN">    -30.00000000</i>
   <i name="OMEGATL">   -200.00000000</i>
   <i type="int" name="OMEGAGRID">     0</i>
   <i name="CSHIFT">     -0.10000000</i>
   <i type="logical" name="LSELFENERGY"> F  </i>
   <i type="logical" name="LSPECTRAL"> F  </i>
   <i type="logical" name="LSPECTRALGW"> F  </i>
   <i type="logical" name="LSINGLES"> F  </i>
   <i type="logical" name="LFERMIGW"> F  </i>
   <i type="logical" name="ODDONLYGW"> F  </i>
   <i type="logical" name="EVENONLYGW"> F  </i>
   <i type="int" name="NKREDLFX">     1</i>
   <i type="int" name="NKREDLFY">     1</i>
   <i type="int" name="NKREDLFZ">     1</i>
   <i type="int" name="MAXMEM">  2800</i>
   <i type="int" name="TELESCOPE">     0</i>
   <i type="int" name="NTAUPAR">    -1</i>
   <i type="int" name="NOMEGAPAR">    -1</i>
   <i name="DAMP_NEWTON">      0.80000001</i>
   <i name="LAMBDA">      1.00000000</i>
  </separator>
  <separator name="External order field" >
   <i name="OFIELD_KAPPA">      0.00000000</i>
   <v name="OFIELD_K">      0.00000000      0.00000000      0.00000000</v>
   <i name="OFIELD_Q6_NEAR">      0.00000000</i>
   <i name="OFIELD_Q6_FAR">      0.00000000</i>
   <i name="OFIELD_A">      0.00000000</i>
  </separator>
  <separator name="optional k-points parameters" >
   <i type="int" name="KPOINTS_OPT_MODE">     1</i>
   <i type="logical" name="LKPOINTS_OPT"> F  </i>
  </separator>
  <separator name="solvation model" >
   <i type="logical" name="LSOL"> F  </i>
  </separator>
 </parameters>
 <atominfo>
  <atoms>      63 </atoms>
  <types>       3 </types>
  <array name="atoms" >
   <dimension dim="1">ion</dimension>
   <field type="string">element</field>
   <field type="int">atomtype</field>
   <set>
    <rc><c>Fe</c><c>   1</c></rc>
    <rc><c>Fe</c><c>   1</c></rc>
    <rc><c>Fe</c><c>   1</c></rc>
    <rc><c>Fe</c><c>   1</c></rc>
    <rc><c>Fe</c><c>   1</c></rc>
    <rc><c>Fe</c><c>   1</c></rc>
    <rc><c>Fe</c><c>   1</c></rc>
    <rc><c>Fe</c><c>   1</c></rc>
    <rc><c>Fe</c><c>   1</c></rc>
    <rc><c>Fe</c><c>   1</c></rc>
    <rc><c>Fe</c><c>   1</c></rc>
    <rc><c>Fe</c><c>   1</c></rc>
    <rc><c>Fe</c><c>   1</c></rc>
    <rc><c>Fe</c><c>   1</c></rc>
    <rc><c>Fe</c><c>   1</c></rc>
    <rc><c>Fe</c><c>   1</c></rc>
    <rc><c>Fe</c><c>   1</c></rc>
    <rc><c>Fe</c><c>   1</c></rc>
    <rc><c>Fe</c><c>   1</c></rc>
    <rc><c>Fe</c><c>   1</c></rc>
    <rc><c>Fe</c><c>   1</c></rc>
    <rc><c>Fe</c><c>   1</c></rc>
    <rc><c>Fe</c><c>   1</c></rc>
    <rc><c>Fe</c><c>   1</c></rc>
    <rc><c>Fe</c><c>   1</c></rc>
    <rc><c>Fe</c><c>   1</c></rc>
    <rc><c>Fe</c><c>   1</c></rc>
    <rc><c>Fe</c><c>   1</c></rc>
    <rc><c>Fe</c><c>   1</c></rc>
    <rc><c>Fe</c><c>   1</c></rc>
    <rc><c>Fe</c><c>   1</c></rc>
    <rc><c>Fe</c><c>   1</c></rc>
    <rc><c>Fe</c><c>   1</c></rc>
    <rc><c>Fe</c><c>   1</c></rc>
    <rc><c>Fe</c><c>   1</c></rc>
    <rc><c>Fe</c><c>   1</c></rc>
    <rc><c>Fe</c><c>   1</c></rc>
    <rc><c>Fe</c><c>   1</c></rc>
    <rc><c>Fe</c><c>   1</c></rc>
    <rc><c>Fe</c><c>   1</c></rc>
    <rc><c>Fe</c><c>   1</c></rc>
    <rc><c>Fe</c><c>   1</c></rc>
    <rc><c>Fe</c><c>   1</c></rc>
    <rc><c>Fe</c><c>   1</c></rc>
    <rc><c>Fe</c><c>   1</c></rc>
    <rc><c>Fe</c><c>   1</c></rc>
    <rc><c>Fe</c><c>   1</c></rc>
    <rc><c>Fe</c><c>   1</c></rc>
    <rc><c>Fe</c><c>   1</c></rc>
    <rc><c>Cr</c><c>   2</c></rc>
    <rc><c>Cr</c><c>   2</c></rc>
    <rc><c>Cr</c><c>   2</c></rc>
    <rc><c>Cr</c><c>   2</c></rc>
    <rc><c>Cr</c><c>   2</c></rc>
    <rc><c>Cr</c><c>   2</c></rc>
    <rc><c>Cr</c><c>   2</c></rc>
    <rc><c>Cr</c><c>   2</c></rc>
    <rc><c>Cr</c><c>   2</c></rc>
    <rc><c>Cr</c><c>   2</c></rc>
    <rc><c>Cr</c><c>   2</c></rc>
    <rc><c>Cr</c><c>   2</c></rc>
    <rc><c>Cr</c><c>   2</c></rc>
    <rc><c>Pb</c><c>   3</c></rc>
   </set>
  </array>
  <array name="atomtypes" >
   <dimension dim="1">type</dimension>
   <field type="int">atomspertype</field>
   <field type="string">element</field>
   <field>mass</field>
   <field>valence</field>
   <field type="string">pseudopotential</field>
   <set>
    <rc><c>  49</c><c>Fe</c><c>     55.84700000</c><c>      8.00000000</c><c>  PAW_PBE Fe 06Sep2000                  </c></rc>
    <rc><c>  13</c><c>Cr</c><c>     51.99600000</c><c>     12.00000000</c><c>  PAW_PBE Cr_pv 02Aug2007               </c></rc>
    <rc><c>   1</c><c>Pb</c><c>    207.20000000</c><c>     14.00000000</c><c>  PAW_PBE Pb_d 06Sep2000                </c></rc>
   </set>
  </array>
 </atominfo>
 <structure name="initialpos" >
  <crystal>
   <varray name="basis" >
    <v>       8.53269958       0.00000000       0.00000000 </v>
    <v>      -0.00051933       8.49699972       0.00000000 </v>
    <v>       0.00000000       0.00000000      23.59499931 </v>
   </varray>
   <i name="volume">   1710.69280467 </i>
   <varray name="rec_basis" >
    <v>       0.11719620       0.00000716       0.00000000 </v>
    <v>       0.00000000       0.11768860       0.00000000 </v>
    <v>       0.00000000       0.00000000       0.04238186 </v>
   </varray>
  </crystal>
  <varray name="positions" >
   <v>       0.00086000       0.99993000       0.24271000 </v>
   <v>       0.16615160       0.16511008       0.30347168 </v>
   <v>       0.50665875       0.17101846       0.30449006 </v>
   <v>       0.66822000       0.00107000       0.24272000 </v>
   <v>       0.83369059       0.17159554       0.30349425 </v>
   <v>       0.00044000       0.33497000       0.24240000 </v>
   <v>       0.16637229       0.50100932       0.30416942 </v>
   <v>       0.33469000       0.33305000       0.24267000 </v>
   <v>       0.50417829       0.49833863       0.30292644 </v>
   <v>       0.82946616       0.49883706       0.30295867 </v>
   <v>       0.16855964       0.83458073       0.30469043 </v>
   <v>       0.33342000       0.66555000       0.24261000 </v>
   <v>       0.83582244       0.83262335       0.30368920 </v>
   <v>       0.00064000       0.00119000       0.00199000 </v>
   <v>       0.99643848       0.00394148       0.36126548 </v>
   <v>       0.16843000       0.16962000       0.06269000 </v>
   <v>       0.33460000       0.00297000       0.00254000 </v>
   <v>       0.33732413       0.00662429       0.36201239 </v>
   <v>       0.50463000       0.16850000       0.06120000 </v>
   <v>       0.83272000       0.16670000       0.06193000 </v>
   <v>       0.00004000       0.33467000       0.00213000 </v>
   <v>       0.00490451       0.33221797       0.36068329 </v>
   <v>       0.16757000       0.49895000       0.06268000 </v>
   <v>       0.50099000       0.49896000       0.06206000 </v>
   <v>       0.83393000       0.50234000       0.06235000 </v>
   <v>       0.00121000       0.66785000       0.00188000 </v>
   <v>       0.99553919       0.66398904       0.36014185 </v>
   <v>       0.16792000       0.83462000       0.06228000 </v>
   <v>       0.33437000       0.66664000       0.00225000 </v>
   <v>       0.33915947       0.66201745       0.36149755 </v>
   <v>       0.50152000       0.83563000       0.06217000 </v>
   <v>       0.66753000       0.66705000       0.00175000 </v>
   <v>       0.66272101       0.67309315       0.36099833 </v>
   <v>       0.83293000       0.83584000       0.06235000 </v>
   <v>       0.00121000       0.00098000       0.12225000 </v>
   <v>       0.16700000       0.16811000       0.18239000 </v>
   <v>       0.33470000       0.00227000       0.12192000 </v>
   <v>       0.50174000       0.16716000       0.18263000 </v>
   <v>       0.83421000       0.16639000       0.18283000 </v>
   <v>       0.16964000       0.49868000       0.18209000 </v>
   <v>       0.50219000       0.50081000       0.18317000 </v>
   <v>       0.66741000       0.33395000       0.12233000 </v>
   <v>       0.83134000       0.50253000       0.18283000 </v>
   <v>       0.00132000       0.66795000       0.12253000 </v>
   <v>       0.16898000       0.83509000       0.18243000 </v>
   <v>       0.33446000       0.66703000       0.12223000 </v>
   <v>       0.49971000       0.83538000       0.18278000 </v>
   <v>       0.66698000       0.66840000       0.12259000 </v>
   <v>       0.83488000       0.83403000       0.18294000 </v>
   <v>       0.33558000       0.99863000       0.24353000 </v>
   <v>       0.66801000       0.33262000       0.24229000 </v>
   <v>       0.00448000       0.66739000       0.24217000 </v>
   <v>       0.49635414       0.83421436       0.30120319 </v>
   <v>       0.66521000       0.67351000       0.24327000 </v>
   <v>       0.66620000       0.99680000       0.00000000 </v>
   <v>       0.66783683       0.99448462       0.36260661 </v>
   <v>       0.33213000       0.33386000       0.00135000 </v>
   <v>       0.33100801       0.33263928       0.36350500 </v>
   <v>       0.67040000       0.33673000       0.00321000 </v>
   <v>       0.66728000       0.99998000       0.12246000 </v>
   <v>       0.99806000       0.33495000       0.12235000 </v>
   <v>       0.33675000       0.33238000       0.12261000 </v>
   <v>       0.16856000       0.83458000       0.42000000 </v>
  </varray>
  <varray name="selective"  type="logical" >
   <v type="logical" >  F  F  F </v>
   <v type="logical" >  T  T  T </v>
   <v type="logical" >  T  T  T </v>
   <v type="logical" >  F  F  F </v>
   <v type="logical" >  T  T  T </v>
   <v type="logical" >  F  F  F </v>
   <v type="logical" >  T  T  T </v>
   <v type="logical" >  F  F  F </v>
   <v type="logical" >  T  T  T </v>
   <v type="logical" >  T  T  T </v>
   <v type="logical" >  T  T  T </v>
   <v type="logical" >  F  F  F </v>
   <v type="logical" >  T  T  T </v>
   <v type="logical" >  F  F  F </v>
   <v type="logical" >  T  T  T </v>
   <v type="logical" >  F  F  F </v>
   <v type="logical" >  F  F  F </v>
   <v type="logical" >  T  T  T </v>
   <v type="logical" >  F  F  F </v>
   <v type="logical" >  F  F  F </v>
   <v type="logical" >  F  F  F </v>
   <v type="logical" >  T  T  T </v>
   <v type="logical" >  F  F  F </v>
   <v type="logical" >  F  F  F </v>
   <v type="logical" >  F  F  F </v>
   <v type="logical" >  F  F  F </v>
   <v type="logical" >  T  T  T </v>
   <v type="logical" >  F  F  F </v>
   <v type="logical" >  F  F  F </v>
   <v type="logical" >  T  T  T </v>
   <v type="logical" >  F  F  F </v>
   <v type="logical" >  F  F  F </v>
   <v type="logical" >  T  T  T </v>
   <v type="logical" >  F  F  F </v>
   <v type="logical" >  F  F  F </v>
   <v type="logical" >  F  F  F </v>
   <v type="logical" >  F  F  F </v>
   <v type="logical" >  F  F  F </v>
   <v type="logical" >  F  F  F </v>
   <v type="logical" >  F  F  F </v>
   <v type="logical" >  F  F  F </v>
   <v type="logical" >  F  F  F </v>
   <v type="logical" >  F  F  F </v>
   <v type="logical" >  F  F  F </v>
   <v type="logical" >  F  F  F </v>
   <v type="logical" >  F  F  F </v>
   <v type="logical" >  F  F  F </v>
   <v type="logical" >  F  F  F </v>
   <v type="logical" >  F  F  F </v>
   <v type="logical" >  F  F  F </v>
   <v type="logical" >  F  F  F </v>
   <v type="logical" >  F  F  F </v>
   <v type="logical" >  T  T  T </v>
   <v type="logical" >  F  F  F </v>
   <v type="logical" >  F  F  F </v>
   <v type="logical" >  T  T  T </v>
   <v type="logical" >  F  F  F </v>
   <v type="logical" >  T  T  T </v>
   <v type="logical" >  F  F  F </v>
   <v type="logical" >  F  F  F </v>
   <v type="logical" >  F  F  F </v>
   <v type="logical" >  F  F  F </v>
   <v type="logical" >  T  T  T </v>
  </varray>
  <nose>
   <v>      -3.00000000       0.00000000       0.00010000       0.00010000 </v>
  </nose>
 </structure>
 <calculation>
  <scstep>
   <time name="dav">  124.38   17.88</time>
   <time name="total">  145.70   23.51</time>
   <dipole>
    <v name="dipole">      0.00000000       0.00000000      -0.00005640 </v>
    <i name="Tr[quadrupol]">  -6852.54625260 </i>
    <i name="Echarged">      0.00000000 </i>
    <i name="Edipol_quadrupol">      0.00000000 </i>
    <i name="Eion">      0.00000000 </i>
   </dipole>
   <energy>
    <i name="alphaZ">   1801.23968488 </i>
    <i name="ewald"> 208105.87244000 </i>
    <i name="hartreedc">-258420.40045545 </i>
    <i name="XCdc">    944.27222278 </i>
    <i name="pawpsdc">  45612.52296067 </i>
    <i name="pawaedc"> -46602.56091303 </i>
    <i name="eentropy">      0.01153290 </i>
    <i name="bandstr">   1885.26396212 </i>
    <i name="atom">  52205.67765473 </i>
    <i name="e_fr_energy">   5531.89908959 </i>
    <i name="e_wo_entrp">   5531.88755669 </i>
    <i name="e_0_energy">   5531.89524529 </i>
   </energy>
  </scstep>
  <scstep>
   <time name="dav">  119.14   17.14</time>
   <time name="total">  119.29   17.17</time>
   <dipole>
    <v name="dipole">      0.00000000       0.00000000      -0.00005640 </v>
    <i name="Tr[quadrupol]">  -6852.54625260 </i>
    <i name="Echarged">      0.00000000 </i>
    <i name="Edipol_quadrupol">      0.00000000 </i>
    <i name="Eion">      0.00000000 </i>
   </dipole>
   <energy>
    <i name="e_fr_energy">    -66.08542266 </i>
    <i name="e_wo_entrp">    -66.07820107 </i>
    <i name="e_0_energy">    -66.08301546 </i>
   </energy>
  </scstep>
  <scstep>
   <time name="dav">  121.71   17.50</time>
   <time name="total">  121.81   17.52</time>
   <dipole>
    <v name="dipole">      0.00000000       0.00000000      -0.00005640 </v>
    <i name="Tr[quadrupol]">  -6852.54625260 </i>
    <i name="Echarged">      0.00000000 </i>
    <i name="Edipol_quadrupol">      0.00000000 </i>
    <i name="Eion">      0.00000000 </i>
   </dipole>
   <energy>
    <i name="e_fr_energy">   -520.27540773 </i>
    <i name="e_wo_entrp">   -520.27620752 </i>
    <i name="e_0_energy">   -520.27567432 </i>
   </energy>
  </scstep>
  <scstep>
   <time name="dav">  186.70   26.82</time>
   <time name="total">  186.79   26.84</time>
   <dipole>
    <v name="dipole">      0.00000000       0.00000000      -0.00005640 </v>
    <i name="Tr[quadrupol]">  -6852.54625260 </i>
    <i name="Echarged">      0.00000000 </i>
    <i name="Edipol_quadrupol">      0.00000000 </i>
    <i name="Eion">      0.00000000 </i>
   </dipole>
   <energy>
    <i name="e_fr_energy">   -578.36746106 </i>
    <i name="e_wo_entrp">   -578.37803315 </i>
    <i name="e_0_energy">   -578.37098509 </i>
   </energy>
  </scstep>
  <scstep>
   <time name="dav">  174.32   25.07</time>
   <time name="total">  178.62   26.00</time>
   <dipole>
    <v name="dipole">      0.00000000       0.00000000      -0.00005640 </v>
    <i name="Tr[quadrupol]">  -6852.54625260 </i>
    <i name="Echarged">      0.00000000 </i>
    <i name="Edipol_quadrupol">      0.00000000 </i>
    <i name="Eion">      0.00000000 </i>
   </dipole>
   <energy>
    <i name="e_fr_energy">   -581.46164246 </i>
    <i name="e_wo_entrp">   -581.47091083 </i>
    <i name="e_0_energy">   -581.46473192 </i>
   </energy>
  </scstep>
  <scstep>
   <time name="dav">  193.01   27.73</time>
   <time name="total">  218.47   34.24</time>
   <dipole>
    <v name="dipole">      0.00000000       0.00000000       2.21546556 </v>
    <i name="Tr[quadrupol]">  -6873.36547334 </i>
    <i name="Echarged">      0.00000000 </i>
    <i name="Edipol_quadrupol">      0.00000000 </i>
    <i name="Eion">      0.00000000 </i>
   </dipole>
   <energy>
    <i name="e_fr_energy">   -765.16510673 </i>
    <i name="e_wo_entrp">   -765.15043279 </i>
    <i name="e_0_energy">   -765.16021542 </i>
   </energy>
  </scstep>
  <scstep>
   <time name="dav">  194.66   27.97</time>
   <time name="total">  220.03   34.45</time>
   <dipole>
    <v name="dipole">      0.00000000       0.00000000      -1.41471778 </v>
    <i name="Tr[quadrupol]">  -6866.96332272 </i>
    <i name="Echarged">      0.00000000 </i>
    <i name="Edipol_quadrupol">      0.00000000 </i>
    <i name="Eion">      0.00000000 </i>
   </dipole>
   <energy>
    <i name="e_fr_energy">   -675.07741413 </i>
    <i name="e_wo_entrp">   -675.08945744 </i>
    <i name="e_0_energy">   -675.08142856 </i>
   </energy>
  </scstep>
  <scstep>
   <time name="dav">  192.70   27.66</time>
   <time name="total">  218.07   34.11</time>
   <dipole>
    <v name="dipole">      0.00000000       0.00000000       0.53548957 </v>
    <i name="Tr[quadrupol]">  -6861.22213765 </i>
    <i name="Echarged">      0.00000000 </i>
    <i name="Edipol_quadrupol">      0.00000000 </i>
    <i name="Eion">      0.00000000 </i>
   </dipole>
   <energy>
    <i name="e_fr_energy">   -546.07766744 </i>
    <i name="e_wo_entrp">   -546.06349037 </i>
    <i name="e_0_energy">   -546.07294175 </i>
   </energy>
  </scstep>
  <scstep>
   <time name="dav">  180.34   25.96</time>
   <time name="total">  205.76   32.45</time>
   <dipole>
    <v name="dipole">      0.00000000       0.00000000       0.05059175 </v>
    <i name="Tr[quadrupol]">  -6859.61581557 </i>
    <i name="Echarged">      0.00000000 </i>
    <i name="Edipol_quadrupol">      0.00000000 </i>
    <i name="Eion">      0.00000000 </i>
   </dipole>
   <energy>
    <i name="e_fr_energy">   -530.76786713 </i>
    <i name="e_wo_entrp">   -530.79576379 </i>
    <i name="e_0_energy">   -530.77716601 </i>
   </energy>
  </scstep>
  <scstep>
   <time name="dav">  173.51   25.00</time>
   <time name="total">  197.96   31.47</time>
   <dipole>
    <v name="dipole">      0.00000000       0.00000000       0.20018408 </v>
    <i name="Tr[quadrupol]">  -6860.89316628 </i>
    <i name="Echarged">      0.00000000 </i>
    <i name="Edipol_quadrupol">      0.00000000 </i>
    <i name="Eion">      0.00000000 </i>
   </dipole>
   <energy>
    <i name="e_fr_energy">   -516.09361349 </i>
    <i name="e_wo_entrp">   -516.09182439 </i>
    <i name="e_0_energy">   -516.09301712 </i>
   </energy>
  </scstep>
  <scstep>
   <time name="dav">  162.01   23.54</time>
   <time name="total">  186.69   30.03</time>
   <dipole>
    <v name="dipole">      0.00000000       0.00000000      -0.01217599 </v>
    <i name="Tr[quadrupol]">  -6868.11294559 </i>
    <i name="Echarged">      0.00000000 </i>
    <i name="Edipol_quadrupol">      0.00000000 </i>
    <i name="Eion">      0.00000000 </i>
   </dipole>
   <energy>
    <i name="e_fr_energy">   -495.66648570 </i>
    <i name="e_wo_entrp">   -495.69041981 </i>
    <i name="e_0_energy">   -495.67446374 </i>
   </energy>
  </scstep>
  <scstep>
   <time name="dav">  155.75   22.45</time>
   <time name="total">  181.04   28.97</time>
   <dipole>
    <v name="dipole">      0.00000000       0.00000000       0.16573407 </v>
    <i name="Tr[quadrupol]">  -6873.67306463 </i>
    <i name="Echarged">      0.00000000 </i>
    <i name="Edipol_quadrupol">      0.00000000 </i>
    <i name="Eion">      0.00000000 </i>
   </dipole>
   <energy>
    <i name="e_fr_energy">   -492.16877506 </i>
    <i name="e_wo_entrp">   -492.19343507 </i>
    <i name="e_0_energy">   -492.17699506 </i>
   </energy>
  </scstep>
  <scstep>
   <time name="dav">  155.09   22.28</time>
   <time name="total">  181.03   28.86</time>
   <dipole>
    <v name="dipole">      0.00000000       0.00000000       0.10057131 </v>
    <i name="Tr[quadrupol]">  -6874.84004683 </i>
    <i name="Echarged">      0.00000000 </i>
    <i name="Edipol_quadrupol">      0.00000000 </i>
    <i name="Eion">      0.00000000 </i>
   </dipole>
   <energy>
    <i name="e_fr_energy">   -492.18326395 </i>
    <i name="e_wo_entrp">   -492.20611108 </i>
    <i name="e_0_energy">   -492.19087966 </i>
   </energy>
  </scstep>
  <scstep>
   <time name="dav">  168.10   24.07</time>
   <time name="total">  193.67   30.57</time>
   <dipole>
    <v name="dipole">      0.00000000       0.00000000       0.09518324 </v>
    <i name="Tr[quadrupol]">  -6874.47100736 </i>
    <i name="Echarged">      0.00000000 </i>
    <i name="Edipol_quadrupol">      0.00000000 </i>
    <i name="Eion">      0.00000000 </i>
   </dipole>
   <energy>
    <i name="e_fr_energy">   -492.13404320 </i>
    <i name="e_wo_entrp">   -492.15760772 </i>
    <i name="e_0_energy">   -492.14189804 </i>
   </energy>
  </scstep>
  <scstep>
   <time name="dav">  183.66   26.36</time>
   <time name="total">  209.39   32.90</time>
   <dipole>
    <v name="dipole">      0.00000000       0.00000000       0.07965473 </v>
    <i name="Tr[quadrupol]">  -6876.34583023 </i>
    <i name="Echarged">      0.00000000 </i>
    <i name="Edipol_quadrupol">      0.00000000 </i>
    <i name="Eion">      0.00000000 </i>
   </dipole>
   <energy>
    <i name="e_fr_energy">   -493.35896118 </i>
    <i name="e_wo_entrp">   -493.37926877 </i>
    <i name="e_0_energy">   -493.36573038 </i>
   </energy>
  </scstep>
  <scstep>
   <time name="dav">  181.22   26.03</time>
   <time name="total">  206.72   32.55</time>
   <dipole>
    <v name="dipole">      0.00000000       0.00000000       0.21420788 </v>
    <i name="Tr[quadrupol]">  -6878.84874464 </i>
    <i name="Echarged">      0.00000000 </i>
    <i name="Edipol_quadrupol">      0.00000000 </i>
    <i name="Eion">      0.00000000 </i>
   </dipole>
   <energy>
    <i name="e_fr_energy">   -496.14212675 </i>
    <i name="e_wo_entrp">   -496.16261428 </i>
    <i name="e_0_energy">   -496.14895593 </i>
   </energy>
  </scstep>
  <scstep>
   <time name="dav">  178.00   25.88</time>
   <time name="total">  203.81   32.46</time>
   <dipole>
    <v name="dipole">      0.00000000       0.00000000       0.09015150 </v>
    <i name="Tr[quadrupol]">  -6881.93131542 </i>
    <i name="Echarged">      0.00000000 </i>
    <i name="Edipol_quadrupol">      0.00000000 </i>
    <i name="Eion">      0.00000000 </i>
   </dipole>
   <energy>
    <i name="e_fr_energy">   -498.79639078 </i>
    <i name="e_wo_entrp">   -498.77784435 </i>
    <i name="e_0_energy">   -498.79020864 </i>
   </energy>
  </scstep>
  <scstep>
   <time name="dav">  169.84   25.02</time>
   <time name="total">  195.65   31.55</time>
   <dipole>
    <v name="dipole">      0.00000000       0.00000000       0.14084539 </v>
    <i name="Tr[quadrupol]">  -6883.90534870 </i>
    <i name="Echarged">      0.00000000 </i>
    <i name="Edipol_quadrupol">      0.00000000 </i>
    <i name="Eion">      0.00000000 </i>
   </dipole>
   <energy>
    <i name="e_fr_energy">   -500.30376597 </i>
    <i name="e_wo_entrp">   -500.30041955 </i>
    <i name="e_0_energy">   -500.30265050 </i>
   </energy>
  </scstep>
  <scstep>
   <time name="dav">  170.22   25.00</time>
   <time name="total">  196.06   31.58</time>
   <dipole>
    <v name="dipole">      0.00000000       0.00000000       0.11563217 </v>
    <i name="Tr[quadrupol]">  -6884.10848544 </i>
    <i name="Echarged">      0.00000000 </i>
    <i name="Edipol_quadrupol">      0.00000000 </i>
    <i name="Eion">      0.00000000 </i>
   </dipole>
   <energy>
    <i name="e_fr_energy">   -500.74589899 </i>
    <i name="e_wo_entrp">   -500.74546532 </i>
    <i name="e_0_energy">   -500.74575443 </i>
   </energy>
  </scstep>
  <scstep>
   <time name="dav">  181.69   26.12</time>
   <time name="total">  207.53   32.73</time>
   <dipole>
    <v name="dipole">      0.00000000       0.00000000       0.10501901 </v>
    <i name="Tr[quadrupol]">  -6884.20020926 </i>
    <i name="Echarged">      0.00000000 </i>
    <i name="Edipol_quadrupol">      0.00000000 </i>
    <i name="Eion">      0.00000000 </i>
   </dipole>
   <energy>
    <i name="e_fr_energy">   -501.16730723 </i>
    <i name="e_wo_entrp">   -501.18011311 </i>
    <i name="e_0_energy">   -501.17157586 </i>
   </energy>
  </scstep>
  <scstep>
   <time name="dav">  184.50   26.50</time>
   <time name="total">  210.41   33.06</time>
   <dipole>
    <v name="dipole">      0.00000000       0.00000000       0.13950334 </v>
    <i name="Tr[quadrupol]">  -6883.43416470 </i>
    <i name="Echarged">      0.00000000 </i>
    <i name="Edipol_quadrupol">      0.00000000 </i>
    <i name="Eion">      0.00000000 </i>
   </dipole>
   <energy>
    <i name="e_fr_energy">   -501.48450976 </i>
    <i name="e_wo_entrp">   -501.50201983 </i>
    <i name="e_0_energy">   -501.49034645 </i>
   </energy>
  </scstep>
  <scstep>
   <time name="dav">  174.25   25.53</time>
   <time name="total">  200.17   32.07</time>
   <dipole>
    <v name="dipole">      0.00000000       0.00000000       0.10558547 </v>
    <i name="Tr[quadrupol]">  -6882.61170084 </i>
    <i name="Echarged">      0.00000000 </i>
    <i name="Edipol_quadrupol">      0.00000000 </i>
    <i name="Eion">      0.00000000 </i>
   </dipole>
   <energy>
    <i name="e_fr_energy">   -501.50633165 </i>
    <i name="e_wo_entrp">   -501.51717733 </i>
    <i name="e_0_energy">   -501.50994687 </i>
   </energy>
  </scstep>
  <scstep>
   <time name="dav">  179.86   25.84</time>
   <time name="total">  205.85   32.41</time>
   <dipole>
    <v name="dipole">      0.00000000       0.00000000       0.13865306 </v>
    <i name="Tr[quadrupol]">  -6882.66923311 </i>
    <i name="Echarged">      0.00000000 </i>
    <i name="Edipol_quadrupol">      0.00000000 </i>
    <i name="Eion">      0.00000000 </i>
   </dipole>
   <energy>
    <i name="e_fr_energy">   -501.62512157 </i>
    <i name="e_wo_entrp">   -501.63962082 </i>
    <i name="e_0_energy">   -501.62995465 </i>
   </energy>
  </scstep>
  <scstep>
   <time name="dav">  178.01   25.60</time>
   <time name="total">  204.06   32.18</time>
   <dipole>
    <v name="dipole">      0.00000000       0.00000000       0.11539630 </v>
    <i name="Tr[quadrupol]">  -6882.77529111 </i>
    <i name="Echarged">      0.00000000 </i>
    <i name="Edipol_quadrupol">      0.00000000 </i>
    <i name="Eion">      0.00000000 </i>
   </dipole>
   <energy>
    <i name="e_fr_energy">   -501.74274949 </i>
    <i name="e_wo_entrp">   -501.75549064 </i>
    <i name="e_0_energy">   -501.74699654 </i>
   </energy>
  </scstep>
  <scstep>
   <time name="dav">  187.21   26.89</time>
   <time name="total">  213.36   33.47</time>
   <dipole>
    <v name="dipole">      0.00000000       0.00000000       0.12978840 </v>
    <i name="Tr[quadrupol]">  -6882.63781670 </i>
    <i name="Echarged">      0.00000000 </i>
    <i name="Edipol_quadrupol">      0.00000000 </i>
    <i name="Eion">      0.00000000 </i>
   </dipole>
   <energy>
    <i name="e_fr_energy">   -502.17713776 </i>
    <i name="e_wo_entrp">   -502.19759517 </i>
    <i name="e_0_energy">   -502.18395689 </i>
   </energy>
  </scstep>
  <scstep>
   <time name="dav">  182.90   26.32</time>
   <time name="total">  209.14   32.94</time>
   <dipole>
    <v name="dipole">      0.00000000       0.00000000       0.10693579 </v>
    <i name="Tr[quadrupol]">  -6882.39372523 </i>
    <i name="Echarged">      0.00000000 </i>
    <i name="Edipol_quadrupol">      0.00000000 </i>
    <i name="Eion">      0.00000000 </i>
   </dipole>
   <energy>
    <i name="e_fr_energy">   -502.54132100 </i>
    <i name="e_wo_entrp">   -502.56978469 </i>
    <i name="e_0_energy">   -502.55080890 </i>
   </energy>
  </scstep>
  <scstep>
   <time name="dav">  182.01   26.21</time>
   <time name="total">  207.55   32.86</time>
   <dipole>
    <v name="dipole">      0.00000000       0.00000000       0.09689984 </v>
    <i name="Tr[quadrupol]">  -6882.09711748 </i>
    <i name="Echarged">      0.00000000 </i>
    <i name="Edipol_quadrupol">      0.00000000 </i>
    <i name="Eion">      0.00000000 </i>
   </dipole>
   <energy>
    <i name="e_fr_energy">   -502.94885175 </i>
    <i name="e_wo_entrp">   -502.97689692 </i>
    <i name="e_0_energy">   -502.95820014 </i>
   </energy>
  </scstep>
  <scstep>
   <time name="dav">  177.27   25.62</time>
   <time name="total">  203.60   32.23</time>
   <dipole>
    <v name="dipole">      0.00000000       0.00000000       0.08286971 </v>
    <i name="Tr[quadrupol]">  -6882.19091368 </i>
    <i name="Echarged">      0.00000000 </i>
    <i name="Edipol_quadrupol">      0.00000000 </i>
    <i name="Eion">      0.00000000 </i>
   </dipole>
   <energy>
    <i name="e_fr_energy">   -503.02652565 </i>
    <i name="e_wo_entrp">   -503.05074550 </i>
    <i name="e_0_energy">   -503.03459893 </i>
   </energy>
  </scstep>
  <scstep>
   <time name="dav">  184.60   26.63</time>
   <time name="total">  210.62   33.25</time>
   <dipole>
    <v name="dipole">      0.00000000       0.00000000       0.10386714 </v>
    <i name="Tr[quadrupol]">  -6882.22527722 </i>
    <i name="Echarged">      0.00000000 </i>
    <i name="Edipol_quadrupol">      0.00000000 </i>
    <i name="Eion">      0.00000000 </i>
   </dipole>
   <energy>
    <i name="e_fr_energy">   -503.18200447 </i>
    <i name="e_wo_entrp">   -503.20837539 </i>
    <i name="e_0_energy">   -503.19079478 </i>
   </energy>
  </scstep>
  <scstep>
   <time name="dav">  178.41   25.62</time>
   <time name="total">  204.53   32.26</time>
   <dipole>
    <v name="dipole">      0.00000000       0.00000000       0.11688961 </v>
    <i name="Tr[quadrupol]">  -6882.32947006 </i>
    <i name="Echarged">      0.00000000 </i>
    <i name="Edipol_quadrupol">      0.00000000 </i>
    <i name="Eion">      0.00000000 </i>
   </dipole>
   <energy>
    <i name="e_fr_energy">   -503.21615152 </i>
    <i name="e_wo_entrp">   -503.24087446 </i>
    <i name="e_0_energy">   -503.22439250 </i>
   </energy>
  </scstep>
  <scstep>
   <time name="dav">  170.22   24.58</time>
   <time name="total">  195.82   31.24</time>
   <dipole>
    <v name="dipole">      0.00000000       0.00000000       0.12316436 </v>
    <i name="Tr[quadrupol]">  -6882.48985813 </i>
    <i name="Echarged">      0.00000000 </i>
    <i name="Edipol_quadrupol">      0.00000000 </i>
    <i name="Eion">      0.00000000 </i>
   </dipole>
   <energy>
    <i name="e_fr_energy">   -503.21267908 </i>
    <i name="e_wo_entrp">   -503.23978280 </i>
    <i name="e_0_energy">   -503.22171365 </i>
   </energy>
  </scstep>
  <scstep>
   <time name="dav">  174.29   25.12</time>
   <time name="total">  200.52   31.79</time>
   <dipole>
    <v name="dipole">      0.00000000       0.00000000       0.11899122 </v>
    <i name="Tr[quadrupol]">  -6882.37754325 </i>
    <i name="Echarged">      0.00000000 </i>
    <i name="Edipol_quadrupol">      0.00000000 </i>
    <i name="Eion">      0.00000000 </i>
   </dipole>
   <energy>
    <i name="e_fr_energy">   -503.22848282 </i>
    <i name="e_wo_entrp">   -503.25470720 </i>
    <i name="e_0_energy">   -503.23722428 </i>
   </energy>
  </scstep>
  <scstep>
   <time name="dav">  185.11   26.56</time>
   <time name="total">  211.64   33.22</time>
   <dipole>
    <v name="dipole">      0.00000000       0.00000000       0.12292052 </v>
    <i name="Tr[quadrupol]">  -6882.17126139 </i>
    <i name="Echarged">      0.00000000 </i>
    <i name="Edipol_quadrupol">      0.00000000 </i>
    <i name="Eion">      0.00000000 </i>
   </dipole>
   <energy>
    <i name="e_fr_energy">   -503.26155912 </i>
    <i name="e_wo_entrp">   -503.28349459 </i>
    <i name="e_0_energy">   -503.26887094 </i>
   </energy>
  </scstep>
  <scstep>
   <time name="dav">  168.21   24.25</time>
   <time name="total">  194.79   30.93</time>
   <dipole>
    <v name="dipole">      0.00000000       0.00000000       0.11921906 </v>
    <i name="Tr[quadrupol]">  -6882.04266176 </i>
    <i name="Echarged">      0.00000000 </i>
    <i name="Edipol_quadrupol">      0.00000000 </i>
    <i name="Eion">      0.00000000 </i>
   </dipole>
   <energy>
    <i name="e_fr_energy">   -503.27893924 </i>
    <i name="e_wo_entrp">   -503.29924320 </i>
    <i name="e_0_energy">   -503.28570723 </i>
   </energy>
  </scstep>
  <scstep>
   <time name="dav">  183.80   26.35</time>
   <time name="total">  210.45   33.07</time>
   <dipole>
    <v name="dipole">      0.00000000       0.00000000       0.12270800 </v>
    <i name="Tr[quadrupol]">  -6882.20024689 </i>
    <i name="Echarged">      0.00000000 </i>
    <i name="Edipol_quadrupol">      0.00000000 </i>
    <i name="Eion">      0.00000000 </i>
   </dipole>
   <energy>
    <i name="e_fr_energy">   -503.29602622 </i>
    <i name="e_wo_entrp">   -503.31640506 </i>
    <i name="e_0_energy">   -503.30281916 </i>
   </energy>
  </scstep>
  <scstep>
   <time name="dav">  185.25   26.55</time>
   <time name="total">  211.83   33.26</time>
   <dipole>
    <v name="dipole">      0.00000000       0.00000000       0.12248059 </v>
    <i name="Tr[quadrupol]">  -6882.32578097 </i>
    <i name="Echarged">      0.00000000 </i>
    <i name="Edipol_quadrupol">      0.00000000 </i>
    <i name="Eion">      0.00000000 </i>
   </dipole>
   <energy>
    <i name="e_fr_energy">   -503.32341666 </i>
    <i name="e_wo_entrp">   -503.34161029 </i>
    <i name="e_0_energy">   -503.32948120 </i>
   </energy>
  </scstep>
  <scstep>
   <time name="dav">  177.21   25.40</time>
   <time name="total">  203.95   32.13</time>
   <dipole>
    <v name="dipole">      0.00000000       0.00000000       0.12274566 </v>
    <i name="Tr[quadrupol]">  -6882.22957131 </i>
    <i name="Echarged">      0.00000000 </i>
    <i name="Edipol_quadrupol">      0.00000000 </i>
    <i name="Eion">      0.00000000 </i>
   </dipole>
   <energy>
    <i name="e_fr_energy">   -503.33647816 </i>
    <i name="e_wo_entrp">   -503.35239606 </i>
    <i name="e_0_energy">   -503.34178413 </i>
   </energy>
  </scstep>
  <scstep>
   <time name="dav">  170.54   24.71</time>
   <time name="total">  197.26   31.46</time>
   <dipole>
    <v name="dipole">      0.00000000       0.00000000       0.12130712 </v>
    <i name="Tr[quadrupol]">  -6882.14661178 </i>
    <i name="Echarged">      0.00000000 </i>
    <i name="Edipol_quadrupol">      0.00000000 </i>
    <i name="Eion">      0.00000000 </i>
   </dipole>
   <energy>
    <i name="e_fr_energy">   -503.34187970 </i>
    <i name="e_wo_entrp">   -503.35641232 </i>
    <i name="e_0_energy">   -503.34672391 </i>
   </energy>
  </scstep>
  <scstep>
   <time name="dav">  180.42   25.98</time>
   <time name="total">  207.15   32.74</time>
   <dipole>
    <v name="dipole">      0.00000000       0.00000000       0.12005752 </v>
    <i name="Tr[quadrupol]">  -6882.07391727 </i>
    <i name="Echarged">      0.00000000 </i>
    <i name="Edipol_quadrupol">      0.00000000 </i>
    <i name="Eion">      0.00000000 </i>
   </dipole>
   <energy>
    <i name="e_fr_energy">   -503.35088747 </i>
    <i name="e_wo_entrp">   -503.36411991 </i>
    <i name="e_0_energy">   -503.35529828 </i>
   </energy>
  </scstep>
  <scstep>
   <time name="dav">  181.32   26.03</time>
   <time name="total">  208.15   32.81</time>
   <dipole>
    <v name="dipole">      0.00000000       0.00000000       0.12027195 </v>
    <i name="Tr[quadrupol]">  -6882.10947923 </i>
    <i name="Echarged">      0.00000000 </i>
    <i name="Edipol_quadrupol">      0.00000000 </i>
    <i name="Eion">      0.00000000 </i>
   </dipole>
   <energy>
    <i name="e_fr_energy">   -503.35755525 </i>
    <i name="e_wo_entrp">   -503.37000018 </i>
    <i name="e_0_energy">   -503.36170356 </i>
   </energy>
  </scstep>
  <scstep>
   <time name="dav">  175.38   25.29</time>
   <time name="total">  201.41   32.08</time>
   <dipole>
    <v name="dipole">      0.00000000       0.00000000       0.11601258 </v>
    <i name="Tr[quadrupol]">  -6882.14323985 </i>
    <i name="Echarged">      0.00000000 </i>
    <i name="Edipol_quadrupol">      0.00000000 </i>
    <i name="Eion">      0.00000000 </i>
   </dipole>
   <energy>
    <i name="e_fr_energy">   -503.35852914 </i>
    <i name="e_wo_entrp">   -503.37057681 </i>
    <i name="e_0_energy">   -503.36254503 </i>
   </energy>
  </scstep>
  <scstep>
   <time name="dav">  181.99   26.09</time>
   <time name="total">  208.84   32.89</time>
   <dipole>
    <v name="dipole">      0.00000000       0.00000000       0.11371655 </v>
    <i name="Tr[quadrupol]">  -6882.13121459 </i>
    <i name="Echarged">      0.00000000 </i>
    <i name="Edipol_quadrupol">      0.00000000 </i>
    <i name="Eion">      0.00000000 </i>
   </dipole>
   <energy>
    <i name="e_fr_energy">   -503.35917966 </i>
    <i name="e_wo_entrp">   -503.37130117 </i>
    <i name="e_0_energy">   -503.36322016 </i>
   </energy>
  </scstep>
  <scstep>
   <time name="dav">  183.76   26.38</time>
   <time name="total">  210.73   33.22</time>
   <dipole>
    <v name="dipole">      0.00000000       0.00000000       0.11503288 </v>
    <i name="Tr[quadrupol]">  -6882.10722750 </i>
    <i name="Echarged">      0.00000000 </i>
    <i name="Edipol_quadrupol">      0.00000000 </i>
    <i name="Eion">      0.00000000 </i>
   </dipole>
   <energy>
    <i name="e_fr_energy">   -503.35914040 </i>
    <i name="e_wo_entrp">   -503.37155856 </i>
    <i name="e_0_energy">   -503.36327979 </i>
   </energy>
  </scstep>
  <scstep>
   <time name="dav">  168.31   24.37</time>
   <time name="total">  194.40   31.20</time>
   <dipole>
    <v name="dipole">      0.00000000       0.00000000       0.11578212 </v>
    <i name="Tr[quadrupol]">  -6882.11185796 </i>
    <i name="Echarged">      0.00000000 </i>
    <i name="Edipol_quadrupol">      0.00000000 </i>
    <i name="Eion">      0.00000000 </i>
   </dipole>
   <energy>
    <i name="e_fr_energy">   -503.35957509 </i>
    <i name="e_wo_entrp">   -503.37204239 </i>
    <i name="e_0_energy">   -503.36373086 </i>
   </energy>
  </scstep>
  <scstep>
   <time name="dav">  179.74   25.85</time>
   <time name="total">  206.66   32.70</time>
   <dipole>
    <v name="dipole">      0.00000000       0.00000000       0.11501918 </v>
    <i name="Tr[quadrupol]">  -6882.10901590 </i>
    <i name="Echarged">      0.00000000 </i>
    <i name="Edipol_quadrupol">      0.00000000 </i>
    <i name="Eion">      0.00000000 </i>
   </dipole>
   <energy>
    <i name="e_fr_energy">   -503.35957723 </i>
    <i name="e_wo_entrp">   -503.37210605 </i>
    <i name="e_0_energy">   -503.36375350 </i>
   </energy>
  </scstep>
  <scstep>
   <time name="dav">  176.43   25.35</time>
   <time name="total">  203.39   32.21</time>
   <dipole>
    <v name="dipole">      0.00000000       0.00000000       0.11375085 </v>
    <i name="Tr[quadrupol]">  -6882.13847696 </i>
    <i name="Echarged">      0.00000000 </i>
    <i name="Edipol_quadrupol">      0.00000000 </i>
    <i name="Eion">      0.00000000 </i>
   </dipole>
   <energy>
    <i name="e_fr_energy">   -503.35963218 </i>
    <i name="e_wo_entrp">   -503.37209060 </i>
    <i name="e_0_energy">   -503.36378499 </i>
   </energy>
  </scstep>
  <scstep>
   <time name="dav">  172.90   24.85</time>
   <time name="total">  199.95   31.73</time>
   <dipole>
    <v name="dipole">      0.00000000       0.00000000       0.11402390 </v>
    <i name="Tr[quadrupol]">  -6882.13080649 </i>
    <i name="Echarged">      0.00000000 </i>
    <i name="Edipol_quadrupol">      0.00000000 </i>
    <i name="Eion">      0.00000000 </i>
   </dipole>
   <energy>
    <i name="e_fr_energy">   -503.35980906 </i>
    <i name="e_wo_entrp">   -503.37252059 </i>
    <i name="e_0_energy">   -503.36404623 </i>
   </energy>
  </scstep>
  <scstep>
   <time name="dav">  174.37   25.03</time>
   <time name="total">  201.17   31.92</time>
   <dipole>
    <v name="dipole">      0.00000000       0.00000000       0.11427651 </v>
    <i name="Tr[quadrupol]">  -6882.12152430 </i>
    <i name="Echarged">      0.00000000 </i>
    <i name="Edipol_quadrupol">      0.00000000 </i>
    <i name="Eion">      0.00000000 </i>
   </dipole>
   <energy>
    <i name="e_fr_energy">   -503.35985525 </i>
    <i name="e_wo_entrp">   -503.37269821 </i>
    <i name="e_0_energy">   -503.36413624 </i>
   </energy>
  </scstep>
  <scstep>
   <time name="dav">  173.41   24.94</time>
   <time name="total">  200.20   31.85</time>
   <dipole>
    <v name="dipole">      0.00000000       0.00000000       0.11493441 </v>
    <i name="Tr[quadrupol]">  -6882.13340262 </i>
    <i name="Echarged">      0.00000000 </i>
    <i name="Edipol_quadrupol">      0.00000000 </i>
    <i name="Eion">      0.00000000 </i>
   </dipole>
   <energy>
    <i name="e_fr_energy">   -503.35990538 </i>
    <i name="e_wo_entrp">   -503.37272644 </i>
    <i name="e_0_energy">   -503.36417907 </i>
   </energy>
  </scstep>
  <scstep>
   <time name="dav">  152.28   22.21</time>
   <time name="total">  179.23   29.14</time>
   <dipole>
    <v name="dipole">      0.00000000       0.00000000       0.11463025 </v>
    <i name="Tr[quadrupol]">  -6882.14698363 </i>
    <i name="Echarged">      0.00000000 </i>
    <i name="Edipol_quadrupol">      0.00000000 </i>
    <i name="Eion">      0.00000000 </i>
   </dipole>
   <energy>
    <i name="e_fr_energy">   -503.35996527 </i>
    <i name="e_wo_entrp">   -503.37263251 </i>
    <i name="e_0_energy">   -503.36418768 </i>
   </energy>
  </scstep>
  <scstep>
   <time name="dav">  166.13   24.00</time>
   <time name="total">  192.37   30.86</time>
   <dipole>
    <v name="dipole">      0.00000000       0.00000000       0.11445854 </v>
    <i name="Tr[quadrupol]">  -6882.14953760 </i>
    <i name="Echarged">      0.00000000 </i>
    <i name="Edipol_quadrupol">      0.00000000 </i>
    <i name="Eion">      0.00000000 </i>
   </dipole>
   <energy>
    <i name="e_fr_energy">   -503.35996033 </i>
    <i name="e_wo_entrp">   -503.37267473 </i>
    <i name="e_0_energy">   -503.36419846 </i>
   </energy>
  </scstep>
  <scstep>
   <time name="dav">  123.84   19.18</time>
   <time name="total">  150.83   26.07</time>
   <dipole>
    <v name="dipole">      0.00000000       0.00000000       0.11425582 </v>
    <i name="Tr[quadrupol]">  -6882.15324479 </i>
    <i name="Echarged">      0.00000000 </i>
    <i name="Edipol_quadrupol">      0.00000000 </i>
    <i name="Eion">      0.00000000 </i>
   </dipole>
   <energy>
    <i name="e_fr_energy">   -503.35997260 </i>
    <i name="e_wo_entrp">   -503.37266395 </i>
    <i name="e_0_energy">   -503.36420305 </i>
   </energy>
  </scstep>
  <scstep>
   <time name="dav">   59.66   13.81</time>
   <time name="total">   86.74   20.72</time>
   <dipole>
    <v name="dipole">      0.00000000       0.00000000       0.11446141 </v>
    <i name="Tr[quadrupol]">  -6882.15656212 </i>
    <i name="Echarged">      0.00000000 </i>
    <i name="Edipol_quadrupol">      0.00000000 </i>
    <i name="Eion">      0.00000000 </i>
   </dipole>
   <energy>
    <i name="e_fr_energy">   -503.35998504 </i>
    <i name="e_wo_entrp">   -503.37270954 </i>
    <i name="e_0_energy">   -503.36422654 </i>
   </energy>
  </scstep>
  <scstep>
   <time name="dav">  118.24   18.48</time>
   <time name="total">  145.08   25.39</time>
   <dipole>
    <v name="dipole">      0.00000000       0.00000000       0.11437197 </v>
    <i name="Tr[quadrupol]">  -6882.15573980 </i>
    <i name="Echarged">      0.00000000 </i>
    <i name="Edipol_quadrupol">      0.00000000 </i>
    <i name="Eion">      0.00000000 </i>
   </dipole>
   <energy>
    <i name="e_fr_energy">   -503.35999606 </i>
    <i name="e_wo_entrp">   -503.37268679 </i>
    <i name="e_0_energy">   -503.36422630 </i>
   </energy>
  </scstep>
  <scstep>
   <time name="dav">   55.58   12.78</time>
   <time name="total">   76.82   18.39</time>
   <dipole>
    <v name="dipole">      0.00000000       0.00000000       0.11416339 </v>
    <i name="Tr[quadrupol]">  -6882.17259587 </i>
    <i name="Echarged">      0.00000000 </i>
    <i name="Edipol_quadrupol">      0.00000000 </i>
    <i name="Eion">      0.00000000 </i>
   </dipole>
   <energy>
    <i name="alphaZ">   1801.51599636 </i>
    <i name="ewald"> 208105.87244000 </i>
    <i name="hartreedc">-258314.79441932 </i>
    <i name="XCdc">    950.41869365 </i>
    <i name="pawpsdc">  54829.72166155 </i>
    <i name="pawaedc"> -55913.36304413 </i>
    <i name="eentropy">      0.01268109 </i>
    <i name="bandstr">  -4168.42166479 </i>
    <i name="atom">  52205.67765473 </i>
    <i name="e_fr_energy">   -503.36000086 </i>
    <i name="e_wo_entrp">   -503.37268195 </i>
    <i name="e_0_energy">   -503.36422789 </i>
   </energy>
  </scstep>
  <structure>
   <crystal>
    <varray name="basis" >
     <v>       8.53269958       0.00000000       0.00000000 </v>
     <v>      -0.00051933       8.49699972       0.00000000 </v>
     <v>       0.00000000       0.00000000      23.59499931 </v>
    </varray>
    <i name="volume">   1710.69280467 </i>
    <varray name="rec_basis" >
     <v>       0.11719620       0.00000716       0.00000000 </v>
     <v>       0.00000000       0.11768860       0.00000000 </v>
     <v>       0.00000000       0.00000000       0.04238186 </v>
    </varray>
   </crystal>
   <varray name="positions" >
    <v>       0.00086000       0.99993000       0.24271000 </v>
    <v>       0.16615160       0.16511008       0.30347168 </v>
    <v>       0.50665875       0.17101846       0.30449006 </v>
    <v>       0.66822000       0.00107000       0.24272000 </v>
    <v>       0.83369059       0.17159554       0.30349425 </v>
    <v>       0.00044000       0.33497000       0.24240000 </v>
    <v>       0.16637229       0.50100932       0.30416942 </v>
    <v>       0.33469000       0.33305000       0.24267000 </v>
    <v>       0.50417829       0.49833863       0.30292644 </v>
    <v>       0.82946616       0.49883706       0.30295867 </v>
    <v>       0.16855964       0.83458073       0.30469043 </v>
    <v>       0.33342000       0.66555000       0.24261000 </v>
    <v>       0.83582244       0.83262335       0.30368920 </v>
    <v>       0.00064000       0.00119000       0.00199000 </v>
    <v>       0.99643848       0.00394148       0.36126548 </v>
    <v>       0.16843000       0.16962000       0.06269000 </v>
    <v>       0.33460000       0.00297000       0.00254000 </v>
    <v>       0.33732413       0.00662429       0.36201239 </v>
    <v>       0.50463000       0.16850000       0.06120000 </v>
    <v>       0.83272000       0.16670000       0.06193000 </v>
    <v>       0.00004000       0.33467000       0.00213000 </v>
    <v>       0.00490451       0.33221797       0.36068329 </v>
    <v>       0.16757000       0.49895000       0.06268000 </v>
    <v>       0.50099000       0.49896000       0.06206000 </v>
    <v>       0.83393000       0.50234000       0.06235000 </v>
    <v>       0.00121000       0.66785000       0.00188000 </v>
    <v>       0.99553919       0.66398904       0.36014185 </v>
    <v>       0.16792000       0.83462000       0.06228000 </v>
    <v>       0.33437000       0.66664000       0.00225000 </v>
    <v>       0.33915947       0.66201745       0.36149755 </v>
    <v>       0.50152000       0.83563000       0.06217000 </v>
    <v>       0.66753000       0.66705000       0.00175000 </v>
    <v>       0.66272101       0.67309315       0.36099833 </v>
    <v>       0.83293000       0.83584000       0.06235000 </v>
    <v>       0.00121000       0.00098000       0.12225000 </v>
    <v>       0.16700000       0.16811000       0.18239000 </v>
    <v>       0.33470000       0.00227000       0.12192000 </v>
    <v>       0.50174000       0.16716000       0.18263000 </v>
    <v>       0.83421000       0.16639000       0.18283000 </v>
    <v>       0.16964000       0.49868000       0.18209000 </v>
    <v>       0.50219000       0.50081000       0.18317000 </v>
    <v>       0.66741000       0.33395000       0.12233000 </v>
    <v>       0.83134000       0.50253000       0.18283000 </v>
    <v>       0.00132000       0.66795000       0.12253000 </v>
    <v>       0.16898000       0.83509000       0.18243000 </v>
    <v>       0.33446000       0.66703000       0.12223000 </v>
    <v>       0.49971000       0.83538000       0.18278000 </v>
    <v>       0.66698000       0.66840000       0.12259000 </v>
    <v>       0.83488000       0.83403000       0.18294000 </v>
    <v>       0.33558000       0.99863000       0.24353000 </v>
    <v>       0.66801000       0.33262000       0.24229000 </v>
    <v>       0.00448000       0.66739000       0.24217000 </v>
    <v>       0.49635414       0.83421436       0.30120319 </v>
    <v>       0.66521000       0.67351000       0.24327000 </v>
    <v>       0.66620000       0.99680000       0.00000000 </v>
    <v>       0.66783683       0.99448462       0.36260661 </v>
    <v>       0.33213000       0.33386000       0.00135000 </v>
    <v>       0.33100801       0.33263928       0.36350500 </v>
    <v>       0.67040000       0.33673000       0.00321000 </v>
    <v>       0.66728000       0.99998000       0.12246000 </v>
    <v>       0.99806000       0.33495000       0.12235000 </v>
    <v>       0.33675000       0.33238000       0.12261000 </v>
    <v>       0.16856000       0.83458000       0.42000000 </v>
   </varray>
  </structure>
  <varray name="forces" >
   <v>      -0.02508597      -0.01877368      -0.06015505 </v>
   <v>       0.02456643       0.04367567      -0.04678957 </v>
   <v>       0.04883872       0.00949333      -0.03203579 </v>
   <v>       0.08389625       0.08695145      -0.13730250 </v>
   <v>      -0.06524938       0.04352498      -0.02588577 </v>
   <v>       0.01167483       0.05663871      -0.11117766 </v>
   <v>       0.02833893      -0.00028536      -0.06114551 </v>
   <v>       0.00999842      -0.04015152      -0.09214161 </v>
   <v>       0.07400259      -0.06732496      -0.01635731 </v>
   <v>      -0.08209522      -0.08524410      -0.07996452 </v>
   <v>      -0.03598358      -0.04252408      -0.74138946 </v>
   <v>      -0.09234530      -0.11223786      -0.10859812 </v>
   <v>      -0.04859979      -0.00524394      -0.05898403 </v>
   <v>       0.03106358      -0.04866785       0.26342601 </v>
   <v>      -1.09048446       1.07728692      -0.76722754 </v>
   <v>      -0.32233830      -0.28024126      -0.00024796 </v>
   <v>      -0.05028544      -0.02941314       0.39334700 </v>
   <v>       1.15023955       1.09327406      -0.83170359 </v>
   <v>      -0.20653632      -0.15528085       0.57795202 </v>
   <v>       0.42737646       0.15376901       0.20192708 </v>
   <v>      -0.07988917       0.02624408       0.40386146 </v>
   <v>      -0.08825684       0.00191844       0.02972139 </v>
   <v>      -0.25723691       0.30859186       0.00947726 </v>
   <v>       0.11924393       0.47655036       0.21029290 </v>
   <v>       0.13160708       0.12515110      -0.08801015 </v>
   <v>       0.05721499       0.02187759       0.12142584 </v>
   <v>      -0.93183095      -0.92664439      -0.66915285 </v>
   <v>      -0.02238881       0.00464806      -0.40653792 </v>
   <v>      -0.10454251       0.02221693       0.25911790 </v>
   <v>       1.02864815      -1.01834819      -0.77637973 </v>
   <v>      -0.28087124      -0.36173384       0.02583173 </v>
   <v>       0.00945584      -0.07368670       0.41218435 </v>
   <v>       0.02013639      -0.06084761       0.00037203 </v>
   <v>       0.35295858      -0.35607574       0.01672927 </v>
   <v>       0.01897028       0.13584923      -0.01399259 </v>
   <v>      -0.00765245      -0.01271028       0.05688570 </v>
   <v>       0.06628123       0.04472439       0.04323450 </v>
   <v>      -0.08050928      -0.05965198       0.10851006 </v>
   <v>       0.05717386      -0.01590541       0.09545927 </v>
   <v>      -0.00818488      -0.01104831       0.24706935 </v>
   <v>      -0.00322724       0.06845840       0.11435431 </v>
   <v>       0.05775303       0.00819178      -0.02676714 </v>
   <v>       0.02740597       0.08389974       0.07492292 </v>
   <v>      -0.04224750      -0.07266534      -0.08549725 </v>
   <v>       0.03162972       0.04597348       0.09486719 </v>
   <v>       0.12442843       0.00261192      -0.03241846 </v>
   <v>      -0.01111311      -0.01881536       0.01225790 </v>
   <v>      -0.06644608      -0.07961819       0.03691944 </v>
   <v>      -0.00796049      -0.04252777       0.21334550 </v>
   <v>       0.22353978       0.08740972       0.07968194 </v>
   <v>      -0.02429782      -0.06645448      -0.03309260 </v>
   <v>      -0.08048859      -0.14637319      -0.11692239 </v>
   <v>      -0.05147392       0.05104572       0.02157022 </v>
   <v>      -0.08159121       0.10411741      -0.08598196 </v>
   <v>       0.06394976       0.42481228      -0.80023537 </v>
   <v>       0.00075033       0.11459312      -0.02576582 </v>
   <v>       0.33417697       0.00867638      -0.66849697 </v>
   <v>       0.08945994      -0.00771910      -0.00140542 </v>
   <v>      -0.30537559      -0.35477104      -0.21681794 </v>
   <v>      -0.08430356       0.17497564      -0.35855534 </v>
   <v>      -0.06058188      -0.04632737      -0.06905125 </v>
   <v>       0.10360004      -0.08294260      -0.48517217 </v>
   <v>      -0.10890627      -0.20689627       4.00661478 </v>
  </varray>
  <varray name="stress" >
   <v>     -13.62480257       0.57208347       0.10778241 </v>
   <v>       0.57208299     -14.08524975      -0.08311489 </v>
   <v>       0.10778150      -0.08311538       2.76797894 </v>
  </varray>
  <energy>
   <i name="e_fr_energy">   -503.36000086 </i>
   <i name="e_wo_entrp">   -503.37268195 </i>
   <i name="e_0_energy">   -503.36422789 </i>
  </energy>
  <time name="totalsc">10658.25 1713.76</time>
 </calculation>
 <calculation>
  <scstep>
   <time name="dav">  122.71   17.59</time>
   <time name="total">  147.66   24.09</time>
   <dipole>
    <v name="dipole">      0.00000000       0.00000000       0.11419971 </v>
    <i name="Tr[quadrupol]">  -6891.33703965 </i>
    <i name="Echarged">      0.00000000 </i>
    <i name="Edipol_quadrupol">      0.00000000 </i>
    <i name="Eion">      0.00000000 </i>
   </dipole>
   <energy>
    <i name="alphaZ">   1802.45591243 </i>
    <i name="ewald"> 207599.58584017 </i>
    <i name="hartreedc">-257815.66859880 </i>
    <i name="XCdc">    950.16343709 </i>
    <i name="pawpsdc">  54830.05290131 </i>
    <i name="pawaedc"> -55913.69929594 </i>
    <i name="eentropy">      0.01636654 </i>
    <i name="bandstr">  -4161.33537339 </i>
    <i name="atom">  52205.67765473 </i>
    <i name="e_fr_energy">   -502.75115586 </i>
    <i name="e_wo_entrp">   -502.76752240 </i>
    <i name="e_0_energy">   -502.75661138 </i>
   </energy>
  </scstep>
  <scstep>
   <time name="dav">  169.98   24.48</time>
   <time name="total">  194.58   30.98</time>
   <dipole>
    <v name="dipole">      0.00000000       0.00000000      -0.04278765 </v>
    <i name="Tr[quadrupol]">  -6891.72009549 </i>
    <i name="Echarged">      0.00000000 </i>
    <i name="Edipol_quadrupol">      0.00000000 </i>
    <i name="Eion">      0.00000000 </i>
   </dipole>
   <energy>
    <i name="e_fr_energy">   -504.21153935 </i>
    <i name="e_wo_entrp">   -504.22946991 </i>
    <i name="e_0_energy">   -504.21751620 </i>
   </energy>
  </scstep>
  <scstep>
   <time name="dav">  184.32   26.52</time>
   <time name="total">  209.75   33.01</time>
   <dipole>
    <v name="dipole">      0.00000000       0.00000000       0.32053759 </v>
    <i name="Tr[quadrupol]">  -6891.95700650 </i>
    <i name="Echarged">      0.00000000 </i>
    <i name="Edipol_quadrupol">      0.00000000 </i>
    <i name="Eion">      0.00000000 </i>
   </dipole>
   <energy>
    <i name="e_fr_energy">   -505.41480036 </i>
    <i name="e_wo_entrp">   -505.43424234 </i>
    <i name="e_0_energy">   -505.42128102 </i>
   </energy>
  </scstep>
  <scstep>
   <time name="dav">  194.11   27.93</time>
   <time name="total">  218.80   34.47</time>
   <dipole>
    <v name="dipole">      0.00000000       0.00000000       0.10550739 </v>
    <i name="Tr[quadrupol]">  -6891.11488549 </i>
    <i name="Echarged">      0.00000000 </i>
    <i name="Edipol_quadrupol">      0.00000000 </i>
    <i name="Eion">      0.00000000 </i>
   </dipole>
   <energy>
    <i name="e_fr_energy">   -503.82200201 </i>
    <i name="e_wo_entrp">   -503.83546360 </i>
    <i name="e_0_energy">   -503.82648920 </i>
   </energy>
  </scstep>
  <scstep>
   <time name="dav">  178.28   25.58</time>
   <time name="total">  203.82   32.09</time>
   <dipole>
    <v name="dipole">      0.00000000       0.00000000       0.08887623 </v>
    <i name="Tr[quadrupol]">  -6891.66692029 </i>
    <i name="Echarged">      0.00000000 </i>
    <i name="Edipol_quadrupol">      0.00000000 </i>
    <i name="Eion">      0.00000000 </i>
   </dipole>
   <energy>
    <i name="e_fr_energy">   -503.93077030 </i>
    <i name="e_wo_entrp">   -503.94323459 </i>
    <i name="e_0_energy">   -503.93492507 </i>
   </energy>
  </scstep>
  <scstep>
   <time name="dav">  170.02   24.54</time>
   <time name="total">  195.66   31.08</time>
   <dipole>
    <v name="dipole">      0.00000000       0.00000000       0.11378255 </v>
    <i name="Tr[quadrupol]">  -6891.40178886 </i>
    <i name="Echarged">      0.00000000 </i>
    <i name="Edipol_quadrupol">      0.00000000 </i>
    <i name="Eion">      0.00000000 </i>
   </dipole>
   <energy>
    <i name="e_fr_energy">   -504.06012403 </i>
    <i name="e_wo_entrp">   -504.07392400 </i>
    <i name="e_0_energy">   -504.06472402 </i>
   </energy>
  </scstep>
  <scstep>
   <time name="dav">  168.71   24.19</time>
   <time name="total">  193.50   30.70</time>
   <dipole>
    <v name="dipole">      0.00000000       0.00000000       0.11208922 </v>
    <i name="Tr[quadrupol]">  -6891.50351514 </i>
    <i name="Echarged">      0.00000000 </i>
    <i name="Edipol_quadrupol">      0.00000000 </i>
    <i name="Eion">      0.00000000 </i>
   </dipole>
   <energy>
    <i name="e_fr_energy">   -504.07962301 </i>
[...]
       <r>   -39.1013    -0.0071    39.0000 </r>
       <r>   -38.9306    -0.0000    39.0000 </r>
       <r>   -38.7599    -0.0000    39.0000 </r>
       <r>   -38.5893    -0.0000    39.0000 </r>
       <r>   -38.4186     0.0000    39.0000 </r>
       <r>   -38.2479     0.0000    39.0000 </r>
       <r>   -38.0773     0.0000    39.0000 </r>
       <r>   -37.9066     0.0000    39.0000 </r>
       <r>   -37.7359     0.0000    39.0000 </r>
       <r>   -37.5653     0.0000    39.0000 </r>
       <r>   -37.3946     0.0000    39.0000 </r>
       <r>   -37.2239     0.0000    39.0000 </r>
       <r>   -37.0533     0.0000    39.0000 </r>
       <r>   -36.8826     0.0000    39.0000 </r>
       <r>   -36.7119     0.0000    39.0000 </r>
       <r>   -36.5413     0.0000    39.0000 </r>
       <r>   -36.3706     0.0000    39.0000 </r>
       <r>   -36.1999     0.0000    39.0000 </r>
       <r>   -36.0293     0.0000    39.0000 </r>
       <r>   -35.8586     0.0000    39.0000 </r>
       <r>   -35.6879     0.0000    39.0000 </r>
       <r>   -35.5173     0.0000    39.0000 </r>
       <r>   -35.3466     0.0000    39.0000 </r>
       <r>   -35.1759     0.0000    39.0000 </r>
       <r>   -35.0053     0.0000    39.0000 </r>
       <r>   -34.8346     0.0000    39.0000 </r>
       <r>   -34.6639     0.0000    39.0000 </r>
       <r>   -34.4933     0.0000    39.0000 </r>
       <r>   -34.3226     0.0000    39.0000 </r>
       <r>   -34.1519     0.0000    39.0000 </r>
       <r>   -33.9812     0.0000    39.0000 </r>
       <r>   -33.8106     0.0000    39.0000 </r>
       <r>   -33.6399     0.0000    39.0000 </r>
       <r>   -33.4692     0.0000    39.0000 </r>
       <r>   -33.2986     0.0000    39.0000 </r>
       <r>   -33.1279     0.0000    39.0000 </r>
       <r>   -32.9572     0.0000    39.0000 </r>
       <r>   -32.7866     0.0000    39.0000 </r>
       <r>   -32.6159     0.0000    39.0000 </r>
       <r>   -32.4452     0.0000    39.0000 </r>
       <r>   -32.2746     0.0000    39.0000 </r>
       <r>   -32.1039     0.0000    39.0000 </r>
       <r>   -31.9332     0.0000    39.0000 </r>
       <r>   -31.7626     0.0000    39.0000 </r>
       <r>   -31.5919     0.0000    39.0000 </r>
       <r>   -31.4212     0.0000    39.0000 </r>
       <r>   -31.2506     0.0000    39.0000 </r>
       <r>   -31.0799     0.0000    39.0000 </r>
       <r>   -30.9092     0.0000    39.0000 </r>
       <r>   -30.7386     0.0000    39.0000 </r>
       <r>   -30.5679     0.0000    39.0000 </r>
       <r>   -30.3972     0.0000    39.0000 </r>
       <r>   -30.2266     0.0000    39.0000 </r>
       <r>   -30.0559     0.0000    39.0000 </r>
       <r>   -29.8852     0.0000    39.0000 </r>
       <r>   -29.7145     0.0000    39.0000 </r>
       <r>   -29.5439     0.0000    39.0000 </r>
       <r>   -29.3732     0.0000    39.0000 </r>
       <r>   -29.2025     0.0000    39.0000 </r>
       <r>   -29.0319     0.0000    39.0000 </r>
       <r>   -28.8612     0.0000    39.0000 </r>
       <r>   -28.6905     0.0000    39.0000 </r>
       <r>   -28.5199     0.0000    39.0000 </r>
       <r>   -28.3492     0.0000    39.0000 </r>
       <r>   -28.1785     0.0000    39.0000 </r>
       <r>   -28.0079     0.0000    39.0000 </r>
       <r>   -27.8372     0.0000    39.0000 </r>
       <r>   -27.6665     0.0000    39.0000 </r>
       <r>   -27.4959     0.0000    39.0000 </r>
       <r>   -27.3252     0.0000    39.0000 </r>
       <r>   -27.1545     0.0000    39.0000 </r>
       <r>   -26.9839     0.0000    39.0000 </r>
       <r>   -26.8132     0.0000    39.0000 </r>
       <r>   -26.6425     0.0000    39.0000 </r>
       <r>   -26.4719     0.0000    39.0000 </r>
       <r>   -26.3012     0.0000    39.0000 </r>
       <r>   -26.1305     0.0000    39.0000 </r>
       <r>   -25.9599     0.0000    39.0000 </r>
       <r>   -25.7892     0.0000    39.0000 </r>
       <r>   -25.6185     0.0000    39.0000 </r>
       <r>   -25.4479     0.0000    39.0000 </r>
       <r>   -25.2772     0.0000    39.0000 </r>
       <r>   -25.1065     0.0000    39.0000 </r>
       <r>   -24.9358     0.0000    39.0000 </r>
       <r>   -24.7652     0.0000    39.0000 </r>
       <r>   -24.5945     0.0000    39.0000 </r>
       <r>   -24.4238     0.0000    39.0000 </r>
       <r>   -24.2532     0.0000    39.0000 </r>
       <r>   -24.0825     0.0000    39.0000 </r>
       <r>   -23.9118     0.0000    39.0000 </r>
       <r>   -23.7412     0.0000    39.0000 </r>
       <r>   -23.5705     0.0000    39.0000 </r>
       <r>   -23.3998     0.0000    39.0000 </r>
       <r>   -23.2292     0.0000    39.0000 </r>
       <r>   -23.0585     0.0000    39.0000 </r>
       <r>   -22.8878     0.0000    39.0000 </r>
       <r>   -22.7172     0.0000    39.0000 </r>
       <r>   -22.5465     0.0000    39.0000 </r>
       <r>   -22.3758     0.0000    39.0000 </r>
       <r>   -22.2052     0.0000    39.0000 </r>
       <r>   -22.0345     0.0000    39.0000 </r>
       <r>   -21.8638     0.0000    39.0000 </r>
       <r>   -21.6932     0.0000    39.0000 </r>
       <r>   -21.5225     0.0000    39.0000 </r>
       <r>   -21.3518     0.0000    39.0000 </r>
       <r>   -21.1812     0.0000    39.0000 </r>
       <r>   -21.0105     0.0000    39.0000 </r>
       <r>   -20.8398     0.0000    39.0000 </r>
       <r>   -20.6692     0.0000    39.0000 </r>
       <r>   -20.4985     0.0000    39.0000 </r>
       <r>   -20.3278     0.0000    39.0000 </r>
       <r>   -20.1571     0.0000    39.0000 </r>
       <r>   -19.9865     0.0000    39.0000 </r>
       <r>   -19.8158     0.0000    39.0000 </r>
       <r>   -19.6451     0.0000    39.0000 </r>
       <r>   -19.4745     0.0000    39.0000 </r>
       <r>   -19.3038     0.0000    39.0000 </r>
       <r>   -19.1331     0.0000    39.0000 </r>
       <r>   -18.9625     0.0000    39.0000 </r>
       <r>   -18.7918     0.0000    39.0000 </r>
       <r>   -18.6211     0.0000    39.0000 </r>
       <r>   -18.4505     0.0000    39.0000 </r>
       <r>   -18.2798     0.0000    39.0000 </r>
       <r>   -18.1091     0.0000    39.0000 </r>
       <r>   -17.9385     0.0000    39.0000 </r>
       <r>   -17.7678     0.0000    39.0000 </r>
       <r>   -17.5971     0.0000    39.0000 </r>
       <r>   -17.4265     0.0000    39.0000 </r>
       <r>   -17.2558     0.0000    39.0000 </r>
       <r>   -17.0851     0.0000    39.0000 </r>
       <r>   -16.9145    -0.0000    39.0000 </r>
       <r>   -16.7438    -0.0000    39.0000 </r>
       <r>   -16.5731    -0.0000    39.0000 </r>
       <r>   -16.4025    -0.0000    39.0000 </r>
       <r>   -16.2318    -0.0000    39.0000 </r>
       <r>   -16.0611    -0.0002    39.0000 </r>
       <r>   -15.8904    -0.0710    38.9878 </r>
       <r>   -15.7198    -0.8855    38.8367 </r>
       <r>   -15.5491    13.6810    41.1716 </r>
       <r>   -15.3784    17.2985    44.1239 </r>
       <r>   -15.2078    -0.5942    44.0225 </r>
       <r>   -15.0371    -0.1314    44.0001 </r>
       <r>   -14.8664    -0.0005    44.0000 </r>
       <r>   -14.6958    -0.0000    44.0000 </r>
       <r>   -14.5251    -0.0000    44.0000 </r>
       <r>   -14.3544     0.0000    44.0000 </r>
       <r>   -14.1838     0.0000    44.0000 </r>
       <r>   -14.0131     0.0000    44.0000 </r>
       <r>   -13.8424     0.0000    44.0000 </r>
       <r>   -13.6718     0.0000    44.0000 </r>
       <r>   -13.5011     0.0000    44.0000 </r>
       <r>   -13.3304     0.0000    44.0000 </r>
       <r>   -13.1598     0.0000    44.0000 </r>
       <r>   -12.9891     0.0000    44.0000 </r>
       <r>   -12.8184     0.0000    44.0000 </r>
       <r>   -12.6478     0.0000    44.0000 </r>
       <r>   -12.4771     0.0000    44.0000 </r>
       <r>   -12.3064     0.0000    44.0000 </r>
       <r>   -12.1358     0.0000    44.0000 </r>
       <r>   -11.9651     0.0000    44.0000 </r>
       <r>   -11.7944     0.0000    44.0000 </r>
       <r>   -11.6238     0.0000    44.0000 </r>
       <r>   -11.4531     0.0000    44.0000 </r>
       <r>   -11.2824     0.0000    44.0000 </r>
       <r>   -11.1117     0.0000    44.0000 </r>
       <r>   -10.9411     0.0000    44.0000 </r>
       <r>   -10.7704     0.0000    44.0000 </r>
       <r>   -10.5997     0.0000    44.0000 </r>
       <r>   -10.4291     0.0000    44.0000 </r>
       <r>   -10.2584     0.0000    44.0000 </r>
       <r>   -10.0877     0.0000    44.0000 </r>
       <r>    -9.9171     0.0000    44.0000 </r>
       <r>    -9.7464     0.0000    44.0000 </r>
       <r>    -9.5757     0.0000    44.0000 </r>
       <r>    -9.4051     0.0000    44.0000 </r>
       <r>    -9.2344     0.0000    44.0000 </r>
       <r>    -9.0637    -0.0000    44.0000 </r>
       <r>    -8.8931    -0.0000    44.0000 </r>
       <r>    -8.7224    -0.0000    44.0000 </r>
       <r>    -8.5517    -0.0000    44.0000 </r>
       <r>    -8.3811    -0.0000    44.0000 </r>
       <r>    -8.2104    -0.0001    44.0000 </r>
       <r>    -8.0397    -0.0197    43.9966 </r>
       <r>    -7.8691    -0.1681    43.9679 </r>
       <r>    -7.6984     3.2391    44.5208 </r>
       <r>    -7.5277     3.0065    45.0339 </r>
       <r>    -7.3571    -0.1926    45.0010 </r>
       <r>    -7.1864    -0.0039    45.0003 </r>
       <r>    -7.0157     0.7968    45.1363 </r>
       <r>    -6.8451     1.8341    45.4493 </r>
       <r>    -6.6744     0.7759    45.5817 </r>
       <r>    -6.5037     1.8714    45.9011 </r>
       <r>    -6.3330     2.3627    46.3044 </r>
       <r>    -6.1624     0.0925    46.3201 </r>
       <r>    -5.9917     1.8091    46.6289 </r>
       <r>    -5.8210     4.5238    47.4010 </r>
       <r>    -5.6504     2.8938    47.8948 </r>
       <r>    -5.4797     2.9152    48.3924 </r>
       <r>    -5.3090     3.9596    49.0681 </r>
       <r>    -5.1384     1.0144    49.2413 </r>
       <r>    -4.9677     4.7423    50.0506 </r>
       <r>    -4.7970     5.4716    50.9844 </r>
       <r>    -4.6264     2.9933    51.4953 </r>
       <r>    -4.4557     4.8502    52.3231 </r>
       <r>    -4.2850     3.6103    52.9392 </r>
       <r>    -4.1144     8.7619    54.4346 </r>
       <r>    -3.9437     7.1043    55.6471 </r>
       <r>    -3.7730     7.4484    56.9183 </r>
       <r>    -3.6024     6.6711    58.0568 </r>
       <r>    -3.4317     8.3832    59.4876 </r>
       <r>    -3.2610    13.0825    61.7203 </r>
       <r>    -3.0904    17.2781    64.6692 </r>
       <r>    -2.9197    20.0559    68.0921 </r>
       <r>    -2.7490    23.0528    72.0264 </r>
       <r>    -2.5784    18.3868    75.1645 </r>
       <r>    -2.4077    25.6785    79.5470 </r>
       <r>    -2.2370    29.6270    84.6033 </r>
       <r>    -2.0664    29.9857    89.7209 </r>
       <r>    -1.8957    35.2604    95.7387 </r>
       <r>    -1.7250    35.0420   101.7193 </r>
       <r>    -1.5543    35.4399   107.7677 </r>
       <r>    -1.3837    47.9833   115.9570 </r>
       <r>    -1.2130    53.5089   125.0892 </r>
       <r>    -1.0423    49.1574   133.4788 </r>
       <r>    -0.8717    50.1323   142.0348 </r>
       <r>    -0.7010    53.1492   151.1057 </r>
       <r>    -0.5303    64.3526   162.0886 </r>
       <r>    -0.3597    65.0737   173.1946 </r>
       <r>    -0.1890    63.6001   184.0491 </r>
       <r>    -0.0183    58.5891   194.0483 </r>
       <r>     0.1523    46.2447   201.9408 </r>
       <r>     0.3230    36.0459   208.0927 </r>
       <r>     0.4937    31.5876   213.4837 </r>
       <r>     0.6643    29.2015   218.4675 </r>
       <r>     0.8350    29.1841   223.4483 </r>
       <r>     1.0057    40.4464   230.3512 </r>
       <r>     1.1763    48.3603   238.6047 </r>
       <r>     1.3470    53.3586   247.7113 </r>
       <r>     1.5177    57.4921   257.5234 </r>
       <r>     1.6883    68.0757   269.1417 </r>
       <r>     1.8590    70.0967   281.1050 </r>
       <r>     2.0297    73.8509   293.7089 </r>
       <r>     2.2003    86.1811   308.4173 </r>
       <r>     2.3710    93.7243   324.4130 </r>
       <r>     2.5417    98.0400   341.1453 </r>
       <r>     2.7124    76.3393   354.1739 </r>
       <r>     2.8830    54.2576   363.4340 </r>
       <r>     3.0537    29.1647   368.4115 </r>
       <r>     3.2244     4.0225   369.0980 </r>
       <r>     3.3950    -0.5500   369.0041 </r>
       <r>     3.5657    -0.0239   369.0000 </r>
       <r>     3.7364    -0.0001   369.0000 </r>
       <r>     3.9070    -0.0000   369.0000 </r>
       <r>     4.0777    -0.0000   369.0000 </r>
       <r>     4.2484     0.0000   369.0000 </r>
       <r>     4.4190     0.0000   369.0000 </r>
       <r>     4.5897     0.0000   369.0000 </r>
       <r>     4.7604     0.0000   369.0000 </r>
       <r>     4.9310     0.0000   369.0000 </r>
       <r>     5.1017     0.0000   369.0000 </r>
       <r>     5.2724     0.0000   369.0000 </r>
       <r>     5.4430     0.0000   369.0000 </r>
      </set>
     </set>
    </array>
   </total>
  </dos>
 </calculation>
 <structure name="finalpos" >
  <crystal>
   <varray name="basis" >
    <v>       8.53269958       0.00000000       0.00000000 </v>
    <v>      -0.00051933       8.49699972       0.00000000 </v>
    <v>       0.00000000       0.00000000      23.59499931 </v>
   </varray>
   <i name="volume">   1710.69280467 </i>
   <varray name="rec_basis" >
    <v>       0.11719620       0.00000716       0.00000000 </v>
    <v>       0.00000000       0.11768860       0.00000000 </v>
    <v>       0.00000000       0.00000000       0.04238186 </v>
   </varray>
  </crystal>
  <varray name="positions" >
   <v>       0.00086000       0.99993000       0.24271000 </v>
   <v>       0.16622624       0.16566945       0.30368166 </v>
   <v>       0.50837251       0.17238227       0.30366382 </v>
   <v>       0.66822000       0.00107000       0.24272000 </v>
   <v>       0.83233064       0.17375749       0.30268855 </v>
   <v>       0.00044000       0.33497000       0.24240000 </v>
   <v>       0.16647445       0.50088467       0.30431317 </v>
   <v>       0.33469000       0.33305000       0.24267000 </v>
   <v>       0.50654469       0.49719301       0.30206079 </v>
   <v>       0.82724434       0.49653323       0.30228094 </v>
   <v>       0.16772085       0.83410687       0.30617285 </v>
   <v>       0.33342000       0.66555000       0.24261000 </v>
   <v>       0.83531056       0.83229851       0.30379548 </v>
   <v>       0.00064000       0.00119000       0.00199000 </v>
   <v>       0.98945145       0.00986683       0.36154096 </v>
   <v>       0.16843000       0.16962000       0.06269000 </v>
   <v>       0.33460000       0.00297000       0.00254000 </v>
   <v>       0.34395537       0.01250140       0.36273829 </v>
   <v>       0.50463000       0.16850000       0.06120000 </v>
   <v>       0.83272000       0.16670000       0.06193000 </v>
   <v>       0.00004000       0.33467000       0.00213000 </v>
   <v>       0.00340775       0.33207415       0.36113480 </v>
   <v>       0.16757000       0.49895000       0.06268000 </v>
   <v>       0.50099000       0.49896000       0.06206000 </v>
   <v>       0.83393000       0.50234000       0.06235000 </v>
   <v>       0.00121000       0.66785000       0.00188000 </v>
   <v>       0.98911598       0.65751354       0.36037581 </v>
   <v>       0.16792000       0.83462000       0.06228000 </v>
   <v>       0.33437000       0.66664000       0.00225000 </v>
   <v>       0.34488599       0.65518702       0.36160606 </v>
   <v>       0.50152000       0.83563000       0.06217000 </v>
   <v>       0.66753000       0.66705000       0.00175000 </v>
   <v>       0.66272289       0.67264608       0.36127347 </v>
   <v>       0.83293000       0.83584000       0.06235000 </v>
   <v>       0.00121000       0.00098000       0.12225000 </v>
   <v>       0.16700000       0.16811000       0.18239000 </v>
   <v>       0.33470000       0.00227000       0.12192000 </v>
   <v>       0.50174000       0.16716000       0.18263000 </v>
   <v>       0.83421000       0.16639000       0.18283000 </v>
   <v>       0.16964000       0.49868000       0.18209000 </v>
   <v>       0.50219000       0.50081000       0.18317000 </v>
   <v>       0.66741000       0.33395000       0.12233000 </v>
   <v>       0.83134000       0.50253000       0.18283000 </v>
   <v>       0.00132000       0.66795000       0.12253000 </v>
   <v>       0.16898000       0.83509000       0.18243000 </v>
   <v>       0.33446000       0.66703000       0.12223000 </v>
   <v>       0.49971000       0.83538000       0.18278000 </v>
   <v>       0.66698000       0.66840000       0.12259000 </v>
   <v>       0.83488000       0.83403000       0.18294000 </v>
   <v>       0.33558000       0.99863000       0.24353000 </v>
   <v>       0.66801000       0.33262000       0.24229000 </v>
   <v>       0.00448000       0.66739000       0.24217000 </v>
   <v>       0.49553106       0.83556563       0.30165725 </v>
   <v>       0.66521000       0.67351000       0.24327000 </v>
   <v>       0.66620000       0.99680000       0.00000000 </v>
   <v>       0.66853973       0.99876911       0.36208727 </v>
   <v>       0.33213000       0.33386000       0.00135000 </v>
   <v>       0.33452714       0.33265467       0.36307199 </v>
   <v>       0.67040000       0.33673000       0.00321000 </v>
   <v>       0.66728000       0.99998000       0.12246000 </v>
   <v>       0.99806000       0.33495000       0.12235000 </v>
   <v>       0.33675000       0.33238000       0.12261000 </v>
   <v>       0.16790661       0.83272461       0.43585311 </v>
  </varray>
  <varray name="selective"  type="logical" >
   <v type="logical" >  F  F  F </v>
   <v type="logical" >  T  T  T </v>
   <v type="logical" >  T  T  T </v>
   <v type="logical" >  F  F  F </v>
   <v type="logical" >  T  T  T </v>
   <v type="logical" >  F  F  F </v>
   <v type="logical" >  T  T  T </v>
   <v type="logical" >  F  F  F </v>
   <v type="logical" >  T  T  T </v>
   <v type="logical" >  T  T  T </v>
   <v type="logical" >  T  T  T </v>
   <v type="logical" >  F  F  F </v>
   <v type="logical" >  T  T  T </v>
   <v type="logical" >  F  F  F </v>
   <v type="logical" >  T  T  T </v>
   <v type="logical" >  F  F  F </v>
   <v type="logical" >  F  F  F </v>
   <v type="logical" >  T  T  T </v>
   <v type="logical" >  F  F  F </v>
   <v type="logical" >  F  F  F </v>
   <v type="logical" >  F  F  F </v>
   <v type="logical" >  T  T  T </v>
   <v type="logical" >  F  F  F </v>
   <v type="logical" >  F  F  F </v>
   <v type="logical" >  F  F  F </v>
   <v type="logical" >  F  F  F </v>
   <v type="logical" >  T  T  T </v>
   <v type="logical" >  F  F  F </v>
   <v type="logical" >  F  F  F </v>
   <v type="logical" >  T  T  T </v>
   <v type="logical" >  F  F  F </v>
   <v type="logical" >  F  F  F </v>
   <v type="logical" >  T  T  T </v>
   <v type="logical" >  F  F  F </v>
   <v type="logical" >  F  F  F </v>
   <v type="logical" >  F  F  F </v>
   <v type="logical" >  F  F  F </v>
   <v type="logical" >  F  F  F </v>
   <v type="logical" >  F  F  F </v>
   <v type="logical" >  F  F  F </v>
   <v type="logical" >  F  F  F </v>
   <v type="logical" >  F  F  F </v>
   <v type="logical" >  F  F  F </v>
   <v type="logical" >  F  F  F </v>
   <v type="logical" >  F  F  F </v>
   <v type="logical" >  F  F  F </v>
   <v type="logical" >  F  F  F </v>
   <v type="logical" >  F  F  F </v>
   <v type="logical" >  F  F  F </v>
   <v type="logical" >  F  F  F </v>
   <v type="logical" >  F  F  F </v>
   <v type="logical" >  F  F  F </v>
   <v type="logical" >  T  T  T </v>
   <v type="logical" >  F  F  F </v>
   <v type="logical" >  F  F  F </v>
   <v type="logical" >  T  T  T </v>
   <v type="logical" >  F  F  F </v>
   <v type="logical" >  T  T  T </v>
   <v type="logical" >  F  F  F </v>
   <v type="logical" >  F  F  F </v>
   <v type="logical" >  F  F  F </v>
   <v type="logical" >  F  F  F </v>
   <v type="logical" >  T  T  T </v>
  </varray>
  <nose>
   <v>      -3.00000000       0.00000000       0.00010000       0.00010000 </v>
  </nose>
 </structure>
</modeling>
