ni3al                                   
           1
     8.532700    0.000000    0.000000
    -0.000519    8.497000    0.000000
     0.000000    0.000000   23.594999
   Fe   Cr   Pb
    49    13     1
Direct configuration=     1
   0.00086000  0.99993000  0.24271000
   0.16615160  0.16511008  0.30347168
   0.50665875  0.17101846  0.30449006
   0.66822000  0.00107000  0.24272000
   0.83369059  0.17159554  0.30349425
   0.00044000  0.33497000  0.24240000
   0.16637229  0.50100932  0.30416942
   0.33469000  0.33305000  0.24267000
   0.50417829  0.49833863  0.30292644
   0.82946616  0.49883706  0.30295867
   0.16855964  0.83458073  0.30469043
   0.33342000  0.66555000  0.24261000
   0.83582244  0.83262335  0.30368920
   0.00064000  0.00119000  0.00199000
   0.99643848  0.00394148  0.36126548
   0.16843000  0.16962000  0.06269000
   0.33460000  0.00297000  0.00254000
   0.33732413  0.00662429  0.36201239
   0.50463000  0.16850000  0.06120000
   0.83272000  0.16670000  0.06193000
   0.00004000  0.33467000  0.00213000
   0.00490451  0.33221797  0.36068329
   0.16757000  0.49895000  0.06268000
   0.50099000  0.49896000  0.06206000
   0.83393000  0.50234000  0.06235000
   0.00121000  0.66785000  0.00188000
   0.99553919  0.66398904  0.36014185
   0.16792000  0.83462000  0.06228000
   0.33437000  0.66664000  0.00225000
   0.33915947  0.66201745  0.36149755
   0.50152000  0.83563000  0.06217000
   0.66753000  0.66705000  0.00175000
   0.66272101  0.67309315  0.36099833
   0.83293000  0.83584000  0.06235000
   0.00121000  0.00098000  0.12225000
   0.16700000  0.16811000  0.18239000
   0.33470000  0.00227000  0.12192000
   0.50174000  0.16716000  0.18263000
   0.83421000  0.16639000  0.18283000
   0.16964000  0.49868000  0.18209000
   0.50219000  0.50081000  0.18317000
   0.66741000  0.33395000  0.12233000
   0.83134000  0.50253000  0.18283000
   0.00132000  0.66795000  0.12253000
   0.16898000  0.83509000  0.18243000
   0.33446000  0.66703000  0.12223000
   0.49971000  0.83538000  0.18278000
   0.66698000  0.66840000  0.12259000
   0.83488000  0.83403000  0.18294000
   0.33558000  0.99863000  0.24353000
   0.66801000  0.33262000  0.24229000
   0.00448000  0.66739000  0.24217000
   0.49635414  0.83421436  0.30120319
   0.66521000  0.67351000  0.24327000
   0.66620000  0.99680000  0.00000000
   0.66783683  0.99448462  0.36260661
   0.33213000  0.33386000  0.00135000
   0.33100801  0.33263928  0.36350500
   0.67040000  0.33673000  0.00321000
   0.66728000  0.99998000  0.12246000
   0.99806000  0.33495000  0.12235000
   0.33675000  0.33238000  0.12261000
   0.16856000  0.83458000  0.42000000
Direct configuration=     2
   0.00086000  0.99993000  0.24271000
   0.16629051  0.16535806  0.30337602
   0.50693488  0.17107236  0.30442455
   0.66822000  0.00107000  0.24272000
   0.83332169  0.17184265  0.30344132
   0.00044000  0.33497000  0.24240000
   0.16653251  0.50100770  0.30404440
   0.33469000  0.33305000  0.24267000
   0.50459666  0.49795639  0.30289300
   0.82900198  0.49835308  0.30279517
   0.16835618  0.83433929  0.30317458
   0.33342000  0.66555000  0.24261000
   0.83554766  0.83259358  0.30356860
   0.00064000  0.00119000  0.00199000
   0.99027341  0.01005789  0.35969680
   0.16843000  0.16962000  0.06269000
   0.33460000  0.00297000  0.00254000
   0.34382779  0.01283147  0.36031188
   0.50463000  0.16850000  0.06120000
   0.83272000  0.16670000  0.06193000
   0.00004000  0.33467000  0.00213000
   0.00440552  0.33222886  0.36074405
   0.16757000  0.49895000  0.06268000
   0.50099000  0.49896000  0.06206000
   0.83393000  0.50234000  0.06235000
   0.00121000  0.66785000  0.00188000
   0.99027044  0.65872792  0.35877369
   0.16792000  0.83462000  0.06228000
   0.33437000  0.66664000  0.00225000
   0.34497495  0.65623566  0.35991015
   0.50152000  0.83563000  0.06217000
   0.66753000  0.66705000  0.00175000
   0.66283484  0.67274768  0.36099909
   0.83293000  0.83584000  0.06235000
   0.00121000  0.00098000  0.12225000
   0.16700000  0.16811000  0.18239000
   0.33470000  0.00227000  0.12192000
   0.50174000  0.16716000  0.18263000
   0.83421000  0.16639000  0.18283000
   0.16964000  0.49868000  0.18209000
   0.50219000  0.50081000  0.18317000
   0.66741000  0.33395000  0.12233000
   0.83134000  0.50253000  0.18283000
   0.00132000  0.66795000  0.12253000
   0.16898000  0.83509000  0.18243000
   0.33446000  0.66703000  0.12223000
   0.49971000  0.83538000  0.18278000
   0.66698000  0.66840000  0.12259000
   0.83488000  0.83403000  0.18294000
   0.33558000  0.99863000  0.24353000
   0.66801000  0.33262000  0.24229000
   0.00448000  0.66739000  0.24217000
   0.49606313  0.83450418  0.30124729
   0.66521000  0.67351000  0.24327000
   0.66620000  0.99680000  0.00000000
   0.66784111  0.99513523  0.36255393
   0.33213000  0.33386000  0.00135000
   0.33151380  0.33259546  0.36350213
   0.67040000  0.33673000  0.00321000
   0.66728000  0.99998000  0.12246000
   0.99806000  0.33495000  0.12235000
   0.33675000  0.33238000  0.12261000
   0.16794419  0.83340532  0.42819198
Direct configuration=     3
   0.00086000  0.99993000  0.24271000
   0.16632265  0.16541543  0.30335389
   0.50699876  0.17108483  0.30440940
   0.66822000  0.00107000  0.24272000
   0.83323635  0.17189982  0.30342908
   0.00044000  0.33497000  0.24240000
   0.16656958  0.50100733  0.30401548
   0.33469000  0.33305000  0.24267000
   0.50469345  0.49786796  0.30288526
   0.82889459  0.49824111  0.30275735
   0.16830911  0.83428344  0.30282389
   0.33342000  0.66555000  0.24261000
   0.83548409  0.83258669  0.30354070
   0.00064000  0.00119000  0.00199000
   0.98884714  0.01147291  0.35933388
   0.16843000  0.16962000  0.06269000
   0.33460000  0.00297000  0.00254000
   0.34533240  0.01426749  0.35991847
   0.50463000  0.16850000  0.06120000
   0.83272000  0.16670000  0.06193000
   0.00004000  0.33467000  0.00213000
   0.00429008  0.33223138  0.36075811
   0.16757000  0.49895000  0.06268000
   0.50099000  0.49896000  0.06206000
   0.83393000  0.50234000  0.06235000
   0.00121000  0.66785000  0.00188000
   0.98905152  0.65751077  0.35845717
   0.16792000  0.83462000  0.06228000
   0.33437000  0.66664000  0.00225000
   0.34632035  0.65489806  0.35954291
   0.50152000  0.83563000  0.06217000
   0.66753000  0.66705000  0.00175000
   0.66286117  0.67266776  0.36099927
   0.83293000  0.83584000  0.06235000
   0.00121000  0.00098000  0.12225000
   0.16700000  0.16811000  0.18239000
   0.33470000  0.00227000  0.12192000
   0.50174000  0.16716000  0.18263000
   0.83421000  0.16639000  0.18283000
   0.16964000  0.49868000  0.18209000
   0.50219000  0.50081000  0.18317000
   0.66741000  0.33395000  0.12233000
   0.83134000  0.50253000  0.18283000
   0.00132000  0.66795000  0.12253000
   0.16898000  0.83509000  0.18243000
   0.33446000  0.66703000  0.12223000
   0.49971000  0.83538000  0.18278000
   0.66698000  0.66840000  0.12259000
   0.83488000  0.83403000  0.18294000
   0.33558000  0.99863000  0.24353000
   0.66801000  0.33262000  0.24229000
   0.00448000  0.66739000  0.24217000
   0.49599581  0.83457123  0.30125749
   0.66521000  0.67351000  0.24327000
   0.66620000  0.99680000  0.00000000
   0.66784210  0.99528575  0.36254174
   0.33213000  0.33386000  0.00135000
   0.33163081  0.33258532  0.36350146
   0.67040000  0.33673000  0.00321000
   0.66728000  0.99998000  0.12246000
   0.99806000  0.33495000  0.12235000
   0.33675000  0.33238000  0.12261000
   0.16780172  0.83313356  0.43008717
Direct configuration=     4
   0.00086000  0.99993000  0.24271000
   0.16634466  0.16625291  0.30307767
   0.50842576  0.17231850  0.30396201
   0.66822000  0.00107000  0.24272000
   0.83177843  0.17342683  0.30288716
   0.00044000  0.33497000  0.24240000
   0.16674593  0.50056628  0.30380603
   0.33469000  0.33305000  0.24267000
   0.50615468  0.49644010  0.30237428
   0.82758714  0.49682068  0.30232598
   0.16805361  0.83421461  0.30358032
   0.33342000  0.66555000  0.24261000
   0.83498436  0.83263835  0.30330539
   0.00064000  0.00119000  0.00199000
   0.98910572  0.01110757  0.35983322
   0.16843000  0.16962000  0.06269000
   0.33460000  0.00297000  0.00254000
   0.34491173  0.01350935  0.36062766
   0.50463000  0.16850000  0.06120000
   0.83272000  0.16670000  0.06193000
   0.00004000  0.33467000  0.00213000
   0.00420221  0.33226151  0.36091740
   0.16757000  0.49895000  0.06268000
   0.50099000  0.49896000  0.06206000
   0.83393000  0.50234000  0.06235000
   0.00121000  0.66785000  0.00188000
   0.98893145  0.65734232  0.35877075
   0.16792000  0.83462000  0.06228000
   0.33437000  0.66664000  0.00225000
   0.34606674  0.65518693  0.35993635
   0.50152000  0.83563000  0.06217000
   0.66753000  0.66705000  0.00175000
   0.66292309  0.67272294  0.36111549
   0.83293000  0.83584000  0.06235000
   0.00121000  0.00098000  0.12225000
   0.16700000  0.16811000  0.18239000
   0.33470000  0.00227000  0.12192000
   0.50174000  0.16716000  0.18263000
   0.83421000  0.16639000  0.18283000
   0.16964000  0.49868000  0.18209000
   0.50219000  0.50081000  0.18317000
   0.66741000  0.33395000  0.12233000
   0.83134000  0.50253000  0.18283000
   0.00132000  0.66795000  0.12253000
   0.16898000  0.83509000  0.18243000
   0.33446000  0.66703000  0.12223000
   0.49971000  0.83538000  0.18278000
   0.66698000  0.66840000  0.12259000
   0.83488000  0.83403000  0.18294000
   0.33558000  0.99863000  0.24353000
   0.66801000  0.33262000  0.24229000
   0.00448000  0.66739000  0.24217000
   0.49642442  0.83478749  0.30110762
   0.66521000  0.67351000  0.24327000
   0.66620000  0.99680000  0.00000000
   0.66789561  0.99576876  0.36245182
   0.33213000  0.33386000  0.00135000
   0.33195906  0.33256948  0.36342786
   0.67040000  0.33673000  0.00321000
   0.66728000  0.99998000  0.12246000
   0.99806000  0.33495000  0.12235000
   0.33675000  0.33238000  0.12261000
   0.16799796  0.83325488  0.43150686
Direct configuration=     5
   0.00086000  0.99993000  0.24271000
   0.16636688  0.16709864  0.30279874
   0.50986681  0.17356431  0.30351021
   0.66822000  0.00107000  0.24272000
   0.83030616  0.17496888  0.30233991
   0.00044000  0.33497000  0.24240000
   0.16692401  0.50012088  0.30359453
   0.33469000  0.33305000  0.24267000
   0.50763028  0.49499819  0.30185827
   0.82626683  0.49538627  0.30189037
   0.16779560  0.83414510  0.30434420
   0.33342000  0.66555000  0.24261000
   0.83447972  0.83269053  0.30306777
   0.00064000  0.00119000  0.00199000
   0.98936684  0.01073862  0.36033748
   0.16843000  0.16962000  0.06269000
   0.33460000  0.00297000  0.00254000
   0.34448693  0.01274375  0.36134384
   0.50463000  0.16850000  0.06120000
   0.83272000  0.16670000  0.06193000
   0.00004000  0.33467000  0.00213000
   0.00411347  0.33229194  0.36107826
   0.16757000  0.49895000  0.06268000
   0.50099000  0.49896000  0.06206000
   0.83393000  0.50234000  0.06235000
   0.00121000  0.66785000  0.00188000
   0.98881019  0.65717221  0.35908741
   0.16792000  0.83462000  0.06228000
   0.33437000  0.66664000  0.00225000
   0.34581065  0.65547864  0.36033367
   0.50152000  0.83563000  0.06217000
   0.66753000  0.66705000  0.00175000
   0.66298561  0.67277867  0.36123286
   0.83293000  0.83584000  0.06235000
   0.00121000  0.00098000  0.12225000
   0.16700000  0.16811000  0.18239000
   0.33470000  0.00227000  0.12192000
   0.50174000  0.16716000  0.18263000
   0.83421000  0.16639000  0.18283000
   0.16964000  0.49868000  0.18209000
   0.50219000  0.50081000  0.18317000
   0.66741000  0.33395000  0.12233000
   0.83134000  0.50253000  0.18283000
   0.00132000  0.66795000  0.12253000
   0.16898000  0.83509000  0.18243000
   0.33446000  0.66703000  0.12223000
   0.49971000  0.83538000  0.18278000
   0.66698000  0.66840000  0.12259000
   0.83488000  0.83403000  0.18294000
   0.33558000  0.99863000  0.24353000
   0.66801000  0.33262000  0.24229000
   0.00448000  0.66739000  0.24217000
   0.49685724  0.83500587  0.30095627
   0.66521000  0.67351000  0.24327000
   0.66620000  0.99680000  0.00000000
   0.66794964  0.99625651  0.36236102
   0.33213000  0.33386000  0.00135000
   0.33229054  0.33255349  0.36335353
   0.67040000  0.33673000  0.00321000
   0.66728000  0.99998000  0.12246000
   0.99806000  0.33495000  0.12235000
   0.33675000  0.33238000  0.12261000
   0.16819613  0.83337739  0.43294052
Direct configuration=     6
   0.00086000  0.99993000  0.24271000
   0.16618203  0.16667745  0.30299370
   0.50976331  0.17355326  0.30351434
   0.66822000  0.00107000  0.24272000
   0.83075313  0.17473015  0.30241418
   0.00044000  0.33497000  0.24240000
   0.16682084  0.50037138  0.30371858
   0.33469000  0.33305000  0.24267000
   0.50750153  0.49537107  0.30185554
   0.82643895  0.49562437  0.30194543
   0.16773700  0.83422949  0.30508233
   0.33342000  0.66555000  0.24261000
   0.83473583  0.83251860  0.30319982
   0.00064000  0.00119000  0.00199000
   0.98921666  0.01088158  0.36043810
   0.16843000  0.16962000  0.06269000
   0.33460000  0.00297000  0.00254000
   0.34446492  0.01276246  0.36157690
   0.50463000  0.16850000  0.06120000
   0.83272000  0.16670000  0.06193000
   0.00004000  0.33467000  0.00213000
   0.00394138  0.33228510  0.36102829
   0.16757000  0.49895000  0.06268000
   0.50099000  0.49896000  0.06206000
   0.83393000  0.50234000  0.06235000
   0.00121000  0.66785000  0.00188000
   0.98863176  0.65700675  0.35922194
   0.16792000  0.83462000  0.06228000
   0.33437000  0.66664000  0.00225000
   0.34590083  0.65531346  0.36047461
   0.50152000  0.83563000  0.06217000
   0.66753000  0.66705000  0.00175000
   0.66301210  0.67269479  0.36120301
   0.83293000  0.83584000  0.06235000
   0.00121000  0.00098000  0.12225000
   0.16700000  0.16811000  0.18239000
   0.33470000  0.00227000  0.12192000
   0.50174000  0.16716000  0.18263000
   0.83421000  0.16639000  0.18283000
   0.16964000  0.49868000  0.18209000
   0.50219000  0.50081000  0.18317000
   0.66741000  0.33395000  0.12233000
   0.83134000  0.50253000  0.18283000
   0.00132000  0.66795000  0.12253000
   0.16898000  0.83509000  0.18243000
   0.33446000  0.66703000  0.12223000
   0.49971000  0.83538000  0.18278000
   0.66698000  0.66840000  0.12259000
   0.83488000  0.83403000  0.18294000
   0.33558000  0.99863000  0.24353000
   0.66801000  0.33262000  0.24229000
   0.00448000  0.66739000  0.24217000
   0.49650043  0.83497596  0.30109771
   0.66521000  0.67351000  0.24327000
   0.66620000  0.99680000  0.00000000
   0.66809433  0.99676868  0.36230109
   0.33213000  0.33386000  0.00135000
   0.33270917  0.33247993  0.36327623
   0.67040000  0.33673000  0.00321000
   0.66728000  0.99998000  0.12246000
   0.99806000  0.33495000  0.12235000
   0.33675000  0.33238000  0.12261000
   0.16815212  0.83327450  0.43368847
Direct configuration=     7
   0.00086000  0.99993000  0.24271000
   0.16578516  0.16577319  0.30341226
   0.50954109  0.17352955  0.30352323
   0.66822000  0.00107000  0.24272000
   0.83171274  0.17421761  0.30257363
   0.00044000  0.33497000  0.24240000
   0.16659933  0.50090919  0.30398492
   0.33469000  0.33305000  0.24267000
   0.50722512  0.49617163  0.30184968
   0.82680847  0.49613556  0.30206363
   0.16761120  0.83441066  0.30666706
   0.33342000  0.66555000  0.24261000
   0.83528568  0.83214949  0.30348335
   0.00064000  0.00119000  0.00199000
   0.98889423  0.01118850  0.36065412
   0.16843000  0.16962000  0.06269000
   0.33460000  0.00297000  0.00254000
   0.34441769  0.01280264  0.36207728
   0.50463000  0.16850000  0.06120000
   0.83272000  0.16670000  0.06193000
   0.00004000  0.33467000  0.00213000
   0.00357191  0.33227044  0.36092099
   0.16757000  0.49895000  0.06268000
   0.50099000  0.49896000  0.06206000
   0.83393000  0.50234000  0.06235000
   0.00121000  0.66785000  0.00188000
   0.98824867  0.65665150  0.35951077
   0.16792000  0.83462000  0.06228000
   0.33437000  0.66664000  0.00225000
   0.34609445  0.65495882  0.36077718
   0.50152000  0.83563000  0.06217000
   0.66753000  0.66705000  0.00175000
   0.66306897  0.67251470  0.36113893
   0.83293000  0.83584000  0.06235000
   0.00121000  0.00098000  0.12225000
   0.16700000  0.16811000  0.18239000
   0.33470000  0.00227000  0.12192000
   0.50174000  0.16716000  0.18263000
   0.83421000  0.16639000  0.18283000
   0.16964000  0.49868000  0.18209000
   0.50219000  0.50081000  0.18317000
   0.66741000  0.33395000  0.12233000
   0.83134000  0.50253000  0.18283000
   0.00132000  0.66795000  0.12253000
   0.16898000  0.83509000  0.18243000
   0.33446000  0.66703000  0.12223000
   0.49971000  0.83538000  0.18278000
   0.66698000  0.66840000  0.12259000
   0.83488000  0.83403000  0.18294000
   0.33558000  0.99863000  0.24353000
   0.66801000  0.33262000  0.24229000
   0.00448000  0.66739000  0.24217000
   0.49573438  0.83491175  0.30140136
   0.66521000  0.67351000  0.24327000
   0.66620000  0.99680000  0.00000000
   0.66840498  0.99786826  0.36217243
   0.33213000  0.33386000  0.00135000
   0.33360793  0.33232201  0.36311029
   0.67040000  0.33673000  0.00321000
   0.66728000  0.99998000  0.12246000
   0.99806000  0.33495000  0.12235000
   0.33675000  0.33238000  0.12261000
   0.16805763  0.83305359  0.43529427
Direct configuration=     8
   0.00086000  0.99993000  0.24271000
   0.16586677  0.16595913  0.30332619
   0.50958679  0.17353443  0.30352140
   0.66822000  0.00107000  0.24272000
   0.83151541  0.17432300  0.30254084
   0.00044000  0.33497000  0.24240000
   0.16664488  0.50079860  0.30393015
   0.33469000  0.33305000  0.24267000
   0.50728196  0.49600701  0.30185088
   0.82673249  0.49603045  0.30203932
   0.16763707  0.83437340  0.30634119
   0.33342000  0.66555000  0.24261000
   0.83517262  0.83222539  0.30342505
   0.00064000  0.00119000  0.00199000
   0.98896053  0.01112539  0.36060970
   0.16843000  0.16962000  0.06269000
   0.33460000  0.00297000  0.00254000
   0.34442740  0.01279438  0.36197439
   0.50463000  0.16850000  0.06120000
   0.83272000  0.16670000  0.06193000
   0.00004000  0.33467000  0.00213000
   0.00364788  0.33227345  0.36094306
   0.16757000  0.49895000  0.06268000
   0.50099000  0.49896000  0.06206000
   0.83393000  0.50234000  0.06235000
   0.00121000  0.66785000  0.00188000
   0.98832744  0.65672455  0.35945137
   0.16792000  0.83462000  0.06228000
   0.33437000  0.66664000  0.00225000
   0.34605463  0.65503174  0.36071496
   0.50152000  0.83563000  0.06217000
   0.66753000  0.66705000  0.00175000
   0.66305728  0.67255173  0.36115210
   0.83293000  0.83584000  0.06235000
   0.00121000  0.00098000  0.12225000
   0.16700000  0.16811000  0.18239000
   0.33470000  0.00227000  0.12192000
   0.50174000  0.16716000  0.18263000
   0.83421000  0.16639000  0.18283000
   0.16964000  0.49868000  0.18209000
   0.50219000  0.50081000  0.18317000
   0.66741000  0.33395000  0.12233000
   0.83134000  0.50253000  0.18283000
   0.00132000  0.66795000  0.12253000
   0.16898000  0.83509000  0.18243000
   0.33446000  0.66703000  0.12223000
   0.49971000  0.83538000  0.18278000
   0.66698000  0.66840000  0.12259000
   0.83488000  0.83403000  0.18294000
   0.33558000  0.99863000  0.24353000
   0.66801000  0.33262000  0.24229000
   0.00448000  0.66739000  0.24217000
   0.49589190  0.83492496  0.30133892
   0.66521000  0.67351000  0.24327000
   0.66620000  0.99680000  0.00000000
   0.66834110  0.99764215  0.36219888
   0.33213000  0.33386000  0.00135000
   0.33342312  0.33235449  0.36314441
   0.67040000  0.33673000  0.00321000
   0.66728000  0.99998000  0.12246000
   0.99806000  0.33495000  0.12235000
   0.33675000  0.33238000  0.12261000
   0.16807706  0.83309901  0.43496407
Direct configuration=     9
   0.00086000  0.99993000  0.24271000
   0.16613652  0.16584723  0.30343424
   0.50915641  0.17308917  0.30361386
   0.66822000  0.00107000  0.24272000
   0.83180983  0.17414457  0.30254294
   0.00044000  0.33497000  0.24240000
   0.16667921  0.50077625  0.30403952
   0.33469000  0.33305000  0.24267000
   0.50699529  0.49651047  0.30189748
   0.82684278  0.49611128  0.30207650
   0.16779395  0.83433753  0.30644034
   0.33342000  0.66555000  0.24261000
   0.83508980  0.83228265  0.30351688
   0.00064000  0.00119000  0.00199000
   0.98912635  0.01070275  0.36108496
   0.16843000  0.16962000  0.06269000
   0.33460000  0.00297000  0.00254000
   0.34435982  0.01276567  0.36227121
   0.50463000  0.16850000  0.06120000
   0.83272000  0.16670000  0.06193000
   0.00004000  0.33467000  0.00213000
   0.00348076  0.33232744  0.36097795
   0.16757000  0.49895000  0.06268000
   0.50099000  0.49896000  0.06206000
   0.83393000  0.50234000  0.06235000
   0.00121000  0.66785000  0.00188000
   0.98858575  0.65695547  0.35993773
   0.16792000  0.83462000  0.06228000
   0.33437000  0.66664000  0.00225000
   0.34576698  0.65506932  0.36110981
   0.50152000  0.83563000  0.06217000
   0.66753000  0.66705000  0.00175000
   0.66302678  0.67250158  0.36116866
   0.83293000  0.83584000  0.06235000
   0.00121000  0.00098000  0.12225000
   0.16700000  0.16811000  0.18239000
   0.33470000  0.00227000  0.12192000
   0.50174000  0.16716000  0.18263000
   0.83421000  0.16639000  0.18283000
   0.16964000  0.49868000  0.18209000
   0.50219000  0.50081000  0.18317000
   0.66741000  0.33395000  0.12233000
   0.83134000  0.50253000  0.18283000
   0.00132000  0.66795000  0.12253000
   0.16898000  0.83509000  0.18243000
   0.33446000  0.66703000  0.12223000
   0.49971000  0.83538000  0.18278000
   0.66698000  0.66840000  0.12259000
   0.83488000  0.83403000  0.18294000
   0.33558000  0.99863000  0.24353000
   0.66801000  0.33262000  0.24229000
   0.00448000  0.66739000  0.24217000
   0.49575730  0.83522813  0.30143054
   0.66521000  0.67351000  0.24327000
   0.66620000  0.99680000  0.00000000
   0.66841058  0.99810178  0.36211951
   0.33213000  0.33386000  0.00135000
   0.33380936  0.33232739  0.36305658
   0.67040000  0.33673000  0.00321000
   0.66728000  0.99998000  0.12246000
   0.99806000  0.33495000  0.12235000
   0.33675000  0.33238000  0.12261000
   0.16791298  0.83291041  0.43534872
Direct configuration=    10
   0.00086000  0.99993000  0.24271000
   0.16644938  0.16571744  0.30355955
   0.50865727  0.17257276  0.30372109
   0.66822000  0.00107000  0.24272000
   0.83215130  0.17393762  0.30254538
   0.00044000  0.33497000  0.24240000
   0.16671903  0.50075033  0.30416637
   0.33469000  0.33305000  0.24267000
   0.50666281  0.49709439  0.30195153
   0.82697070  0.49620503  0.30211961
   0.16797590  0.83429592  0.30655534
   0.33342000  0.66555000  0.24261000
   0.83499375  0.83234905  0.30362340
   0.00064000  0.00119000  0.00199000
   0.98931866  0.01021256  0.36163616
   0.16843000  0.16962000  0.06269000
   0.33460000  0.00297000  0.00254000
   0.34428143  0.01273238  0.36261546
   0.50463000  0.16850000  0.06120000
   0.83272000  0.16670000  0.06193000
   0.00004000  0.33467000  0.00213000
   0.00328694  0.33239006  0.36101841
   0.16757000  0.49895000  0.06268000
   0.50099000  0.49896000  0.06206000
   0.83393000  0.50234000  0.06235000
   0.00121000  0.66785000  0.00188000
   0.98888534  0.65722328  0.36050182
   0.16792000  0.83462000  0.06228000
   0.33437000  0.66664000  0.00225000
   0.34543335  0.65511290  0.36156776
   0.50152000  0.83563000  0.06217000
   0.66753000  0.66705000  0.00175000
   0.66299140  0.67244341  0.36118786
   0.83293000  0.83584000  0.06235000
   0.00121000  0.00098000  0.12225000
   0.16700000  0.16811000  0.18239000
   0.33470000  0.00227000  0.12192000
   0.50174000  0.16716000  0.18263000
   0.83421000  0.16639000  0.18283000
   0.16964000  0.49868000  0.18209000
   0.50219000  0.50081000  0.18317000
   0.66741000  0.33395000  0.12233000
   0.83134000  0.50253000  0.18283000
   0.00132000  0.66795000  0.12253000
   0.16898000  0.83509000  0.18243000
   0.33446000  0.66703000  0.12223000
   0.49971000  0.83538000  0.18278000
   0.66698000  0.66840000  0.12259000
   0.83488000  0.83403000  0.18294000
   0.33558000  0.99863000  0.24353000
   0.66801000  0.33262000  0.24229000
   0.00448000  0.66739000  0.24217000
   0.49560118  0.83557974  0.30153680
   0.66521000  0.67351000  0.24327000
   0.66620000  0.99680000  0.00000000
   0.66849117  0.99863485  0.36202746
   0.33213000  0.33386000  0.00135000
   0.33425733  0.33229597  0.36295472
   0.67040000  0.33673000  0.00321000
   0.66728000  0.99998000  0.12246000
   0.99806000  0.33495000  0.12235000
   0.33675000  0.33238000  0.12261000
   0.16772268  0.83269166  0.43579483
Direct configuration=    11
   0.00086000  0.99993000  0.24271000
   0.16641646  0.16573110  0.30354636
   0.50870980  0.17262711  0.30370981
   0.66822000  0.00107000  0.24272000
   0.83211536  0.17395940  0.30254512
   0.00044000  0.33497000  0.24240000
   0.16671484  0.50075306  0.30415302
   0.33469000  0.33305000  0.24267000
   0.50669780  0.49703293  0.30194585
   0.82695724  0.49619516  0.30211508
   0.16795675  0.83430029  0.30654324
   0.33342000  0.66555000  0.24261000
   0.83500386  0.83234206  0.30361219
   0.00064000  0.00119000  0.00199000
   0.98929842  0.01026415  0.36157815
   0.16843000  0.16962000  0.06269000
   0.33460000  0.00297000  0.00254000
   0.34428968  0.01273588  0.36257923
   0.50463000  0.16850000  0.06120000
   0.83272000  0.16670000  0.06193000
   0.00004000  0.33467000  0.00213000
   0.00330734  0.33238347  0.36101415
   0.16757000  0.49895000  0.06268000
   0.50099000  0.49896000  0.06206000
   0.83393000  0.50234000  0.06235000
   0.00121000  0.66785000  0.00188000
   0.98885381  0.65719510  0.36044245
   0.16792000  0.83462000  0.06228000
   0.33437000  0.66664000  0.00225000
   0.34546846  0.65510832  0.36151957
   0.50152000  0.83563000  0.06217000
   0.66753000  0.66705000  0.00175000
   0.66299512  0.67244954  0.36118584
   0.83293000  0.83584000  0.06235000
   0.00121000  0.00098000  0.12225000
   0.16700000  0.16811000  0.18239000
   0.33470000  0.00227000  0.12192000
   0.50174000  0.16716000  0.18263000
   0.83421000  0.16639000  0.18283000
   0.16964000  0.49868000  0.18209000
   0.50219000  0.50081000  0.18317000
   0.66741000  0.33395000  0.12233000
   0.83134000  0.50253000  0.18283000
   0.00132000  0.66795000  0.12253000
   0.16898000  0.83509000  0.18243000
   0.33446000  0.66703000  0.12223000
   0.49971000  0.83538000  0.18278000
   0.66698000  0.66840000  0.12259000
   0.83488000  0.83403000  0.18294000
   0.33558000  0.99863000  0.24353000
   0.66801000  0.33262000  0.24229000
   0.00448000  0.66739000  0.24217000
   0.49561761  0.83554273  0.30152562
   0.66521000  0.67351000  0.24327000
   0.66620000  0.99680000  0.00000000
   0.66848269  0.99857875  0.36203714
   0.33213000  0.33386000  0.00135000
   0.33421019  0.33229927  0.36296544
   0.67040000  0.33673000  0.00321000
   0.66728000  0.99998000  0.12246000
   0.99806000  0.33495000  0.12235000
   0.33675000  0.33238000  0.12261000
   0.16774271  0.83271468  0.43574788
Direct configuration=    12
   0.00086000  0.99993000  0.24271000
   0.16627649  0.16578916  0.30349030
   0.50893311  0.17285814  0.30366183
   0.66822000  0.00107000  0.24272000
   0.83196259  0.17405199  0.30254403
   0.00044000  0.33497000  0.24240000
   0.16669703  0.50076465  0.30409627
   0.33469000  0.33305000  0.24267000
   0.50684655  0.49677170  0.30192167
   0.82690001  0.49615322  0.30209579
   0.16787535  0.83431891  0.30649179
   0.33342000  0.66555000  0.24261000
   0.83504683  0.83231236  0.30356454
   0.00064000  0.00119000  0.00199000
   0.98921238  0.01048345  0.36133155
   0.16843000  0.16962000  0.06269000
   0.33460000  0.00297000  0.00254000
   0.34432475  0.01275078  0.36242522
   0.50463000  0.16850000  0.06120000
   0.83272000  0.16670000  0.06193000
   0.00004000  0.33467000  0.00213000
   0.00339405  0.33235545  0.36099605
   0.16757000  0.49895000  0.06268000
   0.50099000  0.49896000  0.06206000
   0.83393000  0.50234000  0.06235000
   0.00121000  0.66785000  0.00188000
   0.98871978  0.65707528  0.36019009
   0.16792000  0.83462000  0.06228000
   0.33437000  0.66664000  0.00225000
   0.34561772  0.65508882  0.36131469
   0.50152000  0.83563000  0.06217000
   0.66753000  0.66705000  0.00175000
   0.66301095  0.67247556  0.36117725
   0.83293000  0.83584000  0.06235000
   0.00121000  0.00098000  0.12225000
   0.16700000  0.16811000  0.18239000
   0.33470000  0.00227000  0.12192000
   0.50174000  0.16716000  0.18263000
   0.83421000  0.16639000  0.18283000
   0.16964000  0.49868000  0.18209000
   0.50219000  0.50081000  0.18317000
   0.66741000  0.33395000  0.12233000
   0.83134000  0.50253000  0.18283000
   0.00132000  0.66795000  0.12253000
   0.16898000  0.83509000  0.18243000
   0.33446000  0.66703000  0.12223000
   0.49971000  0.83538000  0.18278000
   0.66698000  0.66840000  0.12259000
   0.83488000  0.83403000  0.18294000
   0.33558000  0.99863000  0.24353000
   0.66801000  0.33262000  0.24229000
   0.00448000  0.66739000  0.24217000
   0.49568745  0.83538543  0.30147808
   0.66521000  0.67351000  0.24327000
   0.66620000  0.99680000  0.00000000
   0.66844663  0.99834026  0.36207833
   0.33213000  0.33386000  0.00135000
   0.33400978  0.33231333  0.36301101
   0.67040000  0.33673000  0.00321000
   0.66728000  0.99998000  0.12246000
   0.99806000  0.33495000  0.12235000
   0.33675000  0.33238000  0.12261000
   0.16782785  0.83281255  0.43554830
Direct configuration=    13
   0.00086000  0.99993000  0.24271000
   0.16637726  0.16574736  0.30353066
   0.50877234  0.17269181  0.30369637
   0.66822000  0.00107000  0.24272000
   0.83207258  0.17398533  0.30254482
   0.00044000  0.33497000  0.24240000
   0.16670985  0.50075630  0.30413712
   0.33469000  0.33305000  0.24267000
   0.50673946  0.49695978  0.30193907
   0.82694121  0.49618341  0.30210968
   0.16793396  0.83430551  0.30652883
   0.33342000  0.66555000  0.24261000
   0.83501589  0.83233374  0.30359884
   0.00064000  0.00119000  0.00199000
   0.98927433  0.01032556  0.36150909
   0.16843000  0.16962000  0.06269000
   0.33460000  0.00297000  0.00254000
   0.34429950  0.01274006  0.36253610