   63   63    1    2
  0.2715385E+02  0.8532700E-09  0.8497000E-09  0.2359500E-08  0.1000000E-16
  1.000000000000000E-004
  CAR 
 Fe2O3                                   
    566     10    371
 
  0.0000000E+00  0.0000000E+00  0.0000000E+00  0.6250000E-01
      1        -42.853092      -43.369111   1.000000   1.000000
      2        -42.840281      -43.321017   1.000000   1.000000
      3        -42.823098      -43.283965   1.000000   1.000000
      4        -42.811670      -43.272479   1.000000   1.000000
      5        -42.799722      -43.213343   1.000000   1.000000
      6        -42.784057      -43.208102   1.000000   1.000000
      7        -42.778485      -43.195215   1.000000   1.000000
      8        -42.763183      -43.186104   1.000000   1.000000
      9        -42.760477      -43.172492   1.000000   1.000000
     10        -42.737641      -43.167455   1.000000   1.000000
     11        -42.735277      -43.166309   1.000000   1.000000
     12        -42.729854      -43.152948   1.000000   1.000000
     13        -42.272178      -43.151557   1.000000   1.000000
     14        -42.214058      -43.150956   1.000000   1.000000
     15        -42.143522      -43.126511   1.000000   1.000000
     16        -42.089007      -43.125759   1.000000   1.000000
     17        -42.057648      -43.089527   1.000000   1.000000
     18        -42.046224      -43.077735   1.000000   1.000000
     19        -42.016109      -42.838885   1.000000   1.000000
     20        -42.006501      -42.769040   1.000000   1.000000
     21        -42.003566      -42.757580   1.000000   1.000000
     22        -41.866637      -42.674788   1.000000   1.000000
     23        -41.865179      -42.671302   1.000000   1.000000
     24        -41.846611      -42.586982   1.000000   1.000000
     25        -41.841187      -42.232184   1.000000   1.000000
     26        -41.839973      -42.116372   1.000000   1.000000
     27        -41.834606      -42.041065   1.000000   1.000000
     28        -41.820385      -41.981768   1.000000   1.000000
     29        -41.819477      -41.864680   1.000000   1.000000
     30        -41.816877      -41.652426   1.000000   1.000000
     31        -41.815432      -40.482500   1.000000   1.000000
     32        -41.810859      -40.477990   1.000000   1.000000
     33        -41.797635      -40.161036   1.000000   1.000000
     34        -41.792758      -40.079287   1.000000   1.000000
     35        -41.788658      -40.052645   1.000000   1.000000
     36        -41.788054      -39.997538   1.000000   1.000000
     37        -41.781130      -39.970800   1.000000   1.000000
     38        -41.772288      -39.961744   1.000000   1.000000
     39        -41.761655      -39.903278   1.000000   1.000000
     40        -40.316874      -39.843605   1.000000   1.000000
     41        -40.291300      -39.763138   1.000000   1.000000
     42        -40.181083      -39.672047   1.000000   1.000000
     43        -15.394607      -15.408677   1.000000   1.000000
     44        -15.379197      -15.399046   1.000000   1.000000
     45        -15.350129      -15.360893   1.000000   1.000000
     46        -15.345952      -15.354287   1.000000   1.000000
     47        -15.311552      -15.324185   1.000000   1.000000
     48         -7.415615       -7.418024   1.000000   1.000000
     49         -7.171429       -7.097780   1.000000   1.000000
     50         -6.206428       -6.040127   1.000000   1.000000
     51         -5.291882       -5.103908   1.000000   1.000000
     52         -5.250303       -5.078745   1.000000   1.000000
     53         -5.229333       -5.070599   1.000000   1.000000
     54         -5.202178       -5.046873   1.000000   1.000000
     55         -4.906194       -4.599295   1.000000   1.000000
     56         -4.638396       -4.326334   1.000000   1.000000
     57         -4.600974       -4.279087   1.000000   1.000000
     58         -4.571406       -4.243099   1.000000   1.000000
     59         -4.559335       -4.191122   1.000000   1.000000
     60         -4.151351       -3.706069   1.000000   1.000000
     61         -4.132580       -3.693057   1.000000   1.000000
     62         -4.118912       -3.655642   1.000000   1.000000
     63         -4.106078       -3.601470   1.000000   1.000000
     64         -4.073479       -3.525333   1.000000   1.000000
     65         -4.049514       -3.456644   1.000000   1.000000
     66         -4.039898       -3.410945   1.000000   1.000000
     67         -3.988630       -3.356034   1.000000   1.000000
     68         -3.835171       -3.211004   1.000000   1.000000
     69         -3.812575       -2.919368   1.000000   1.000000
     70         -3.733893       -2.876356   1.000000   1.000000
     71         -3.658118       -2.848470   1.000000   1.000000
     72         -3.616343       -2.812889   1.000000   1.000000
     73         -3.609408       -2.802024   1.000000   1.000000
     74         -3.562820       -2.748393   1.000000   1.000000
     75         -3.465579       -2.693191   1.000000   1.000000
     76         -3.431338       -2.680019   1.000000   1.000000
     77         -3.422055       -2.659768   1.000000   1.000000
     78         -3.414263       -2.548488   1.000000   1.000000
     79         -3.398099       -2.421816   1.000000   1.000000
     80         -3.385730       -2.405130   1.000000   1.000000
     81         -3.365861       -2.379665   1.000000   1.000000
     82         -3.348053       -2.355182   1.000000   1.000000
     83         -3.315510       -2.324936   1.000000   1.000000
     84         -3.303457       -2.293448   1.000000   1.000000
     85         -3.286224       -2.272910   1.000000   1.000000
     86         -3.279215       -2.237900   1.000000   1.000000
     87         -3.257388       -2.178590   1.000000   1.000000
     88         -3.255573       -2.137968   1.000000   1.000000
     89         -3.234344       -2.128625   1.000000   1.000000
     90         -3.217967       -2.124280   1.000000   1.000000
     91         -3.192353       -2.079417   1.000000   1.000000
     92         -3.157221       -2.058239   1.000000   1.000000
     93         -3.144086       -2.035751   1.000000   1.000000
     94         -3.104332       -2.008573   1.000000   1.000000
     95         -3.067216       -1.981865   1.000000   1.000000
     96         -2.998989       -1.943965   1.000000   1.000000
     97         -2.994694       -1.891954   1.000000   1.000000
     98         -2.962936       -1.831389   1.000000   1.000000
     99         -2.958784       -1.805737   1.000000   1.000000
    100         -2.949322       -1.792107   1.000000   1.000000
    101         -2.940583       -1.780106   1.000000   1.000000
    102         -2.922104       -1.774563   1.000000   1.000000
    103         -2.909090       -1.703791   1.000000   1.000000
    104         -2.891305       -1.694352   1.000000   1.000000
    105         -2.880526       -1.643157   1.000000   1.000000
    106         -2.871243       -1.632431   1.000000   1.000000
    107         -2.840664       -1.600377   1.000000   1.000000
    108         -2.821899       -1.573306   1.000000   1.000000
    109         -2.804752       -1.570429   1.000000   1.000000
    110         -2.748491       -1.539792   1.000000   1.000000
    111         -2.695775       -1.515278   1.000000   1.000000
    112         -2.682437       -1.469894   1.000000   1.000000
    113         -2.649951       -1.461177   1.000000   1.000000
    114         -2.638301       -1.451631   1.000000   1.000000
    115         -2.622924       -1.427298   1.000000   1.000000
    116         -2.617237       -1.407724   1.000000   1.000000
    117         -2.598574       -1.383071   1.000000   1.000000
    118         -2.586281       -1.352780   1.000000   1.000000
    119         -2.572997       -1.338701   1.000000   1.000000
    120         -2.566651       -1.315972   1.000000   1.000000
    121         -2.550752       -1.301457   1.000000   1.000000
    122         -2.543829       -1.280483   1.000000   1.000000
    123         -2.527461       -1.255234   1.000000   1.000000
    124         -2.517459       -1.242848   1.000000   1.000000
    125         -2.506921       -1.188959   1.000000   1.000000
    126         -2.498931       -1.179378   1.000000   1.000000
    127         -2.496234       -1.160189   1.000000   1.000000
    128         -2.473511       -1.147231   1.000000   1.000000
    129         -2.462758       -1.138963   1.000000   1.000000
    130         -2.454446       -1.127192   1.000000   1.000000
    131         -2.442481       -1.115211   1.000000   1.000000
    132         -2.441120       -1.097397   1.000000   1.000000
    133         -2.422808       -1.073355   1.000000   1.000000
    134         -2.402156       -1.054425   1.000000   1.000000
    135         -2.393424       -1.030218   1.000000   1.000000
    136         -2.383440       -1.013968   1.000000   1.000000
    137         -2.369775       -1.004070   1.000000   1.000000
    138         -2.359021       -0.984428   1.000000   1.000000
    139         -2.358825       -0.968546   1.000000   1.000000
    140         -2.341755       -0.939372   1.000000   1.000000
    141         -2.333935       -0.930466   1.000000   1.000000
    142         -2.324060       -0.921379   1.000000   1.000000
    143         -2.313607       -0.910490   1.000000   1.000000
    144         -2.295778       -0.886561   1.000000   1.000000
    145         -2.273404       -0.872558   1.000000   1.000000
    146         -2.264884       -0.854512   1.000000   1.000000
    147         -2.250029       -0.832283   1.000000   1.000000
    148         -2.240921       -0.822927   1.000000   1.000000
    149         -2.226293       -0.806107   1.000000   1.000000
    150         -2.224450       -0.802653   1.000000   1.000000
    151         -2.214779       -0.775210   1.000000   1.000000
    152         -2.194448       -0.765795   1.000000   1.000000
    153         -2.183268       -0.749792   1.000000   1.000000
    154         -2.154582       -0.718075   1.000000   1.000000
    155         -2.139614       -0.708388   1.000000   1.000000
    156         -2.126537       -0.696455   1.000000   1.000000
    157         -2.113461       -0.684983   1.000000   1.000000
    158         -2.110789       -0.649494   1.000000   1.000000
    159         -2.104905       -0.645434   1.000000   1.000000
    160         -2.091350       -0.609832   1.000000   1.000000
    161         -2.066796       -0.588045   1.000000   1.000000
    162         -2.056077       -0.584967   1.000000   1.000000
    163         -2.035974       -0.563650   1.000000   1.000000
    164         -2.025963       -0.541579   1.000000   1.000000
    165         -2.009229       -0.531180   1.000000   1.000000
    166         -1.989332       -0.511677   1.000000   1.000000
    167         -1.977133       -0.505216   1.000000   1.000000
    168         -1.963627       -0.496233   1.000000   1.000000
    169         -1.945525       -0.475576   1.000000   1.000000
    170         -1.939819       -0.453808   1.000000   1.000000
    171         -1.929734       -0.439904   1.000000   1.000000
    172         -1.897221       -0.414625   1.000000   1.000000
    173         -1.882051       -0.401188   1.000000   1.000000
    174         -1.872264       -0.379572   1.000000   1.000000
    175         -1.862964       -0.361010   1.000000   1.000000
    176         -1.855755       -0.324992   1.000000   1.000000
    177         -1.834516       -0.321253   1.000000   1.000000
    178         -1.829835       -0.304855   1.000000   1.000000
    179         -1.820242       -0.288079   1.000000   1.000000
    180         -1.792139       -0.269246   1.000000   1.000000
    181         -1.786621       -0.264757   1.000000   1.000000
    182         -1.760164       -0.248538   1.000000   1.000000
    183         -1.748402       -0.230233   1.000000   1.000000
    184         -1.737416       -0.212905   1.000000   1.000000
    185         -1.721338       -0.189079   1.000000   1.000000
    186         -1.700461       -0.177088   1.000000   1.000000
    187         -1.679018       -0.155500   1.000000   1.000000
    188         -1.659160       -0.144952   1.000000   1.000000
    189         -1.632476       -0.100579   1.000000   1.000000
    190         -1.626956       -0.086377   1.000000   1.000000
    191         -1.614155       -0.056314   1.000000   1.000000
    192         -1.592092       -0.020364   1.000000   1.000000
    193         -1.570893       -0.015787   1.000000   1.000000
    194         -1.547525        0.003636   1.000000   1.000000
    195         -1.530117        0.029228   1.000000   1.000000
    196         -1.520259        0.086648   1.000000   1.000000
    197         -1.516332        0.099742   1.000000   1.000000
    198         -1.480229        0.121148   1.000000   1.000000
    199         -1.473834        0.154566   1.000000   1.000000
    200         -1.459818        0.165498   1.000000   1.000000
    201         -1.424867        0.199000   1.000000   1.000000
    202         -1.419320        0.235997   1.000000   1.000000
    203         -1.381755        0.259581   1.000000   1.000000
    204         -1.377433        0.261596   1.000000   1.000000
    205         -1.372604        0.274220   1.000000   1.000000
    206         -1.360841        0.277337   1.000000   1.000000
    207         -1.340006        0.314471   1.000000   1.000000
    208         -1.319267        0.324452   1.000000   1.000000
    209         -1.291128        0.353235   1.000000   1.000000
    210         -1.264422        0.375296   1.000000   1.000000
    211         -1.257124        0.404608   1.000000   1.000000
    212         -1.250385        0.419497   1.000000   1.000000
    213         -1.210682        0.465365   1.000000   1.000000
    214         -1.182218        0.487595   1.000000   1.000000
    215         -1.165846        0.503352   1.000000   1.000000
    216         -1.158248        0.529952   1.000000   1.000000
    217         -1.140978        0.572879   1.000000   1.000001
    218         -1.103561        0.603517   1.000000   1.000005
    219         -1.083765        0.606316   1.000000   1.000006
    220         -1.073832        0.629891   1.000000   1.000027
    221         -1.064009        0.665293   1.000000   1.000198
    222         -1.041900        0.678482   1.000000   1.000390
    223         -1.022246        0.715449   1.000000   1.002112
    224         -1.001308        0.736224   1.000000   1.004735
    225         -0.992920        0.753094   1.000000   1.008418
    226         -0.974996        0.792093   1.000000   1.023347
    227         -0.951673        0.811224   1.000000   1.031676
    228         -0.943032        0.838055   1.000000   1.034037
    229         -0.927702        0.871461   1.000000   0.990109
    230         -0.922922        0.922400   1.000000   0.734976
    231         -0.872744        0.979898   1.000000   0.269973
    232         -0.855789        1.038632   1.000000  -0.006140
    233         -0.834155        1.081605   1.000000  -0.034648
    234         -0.827667        1.119210   1.000000  -0.019549
    235         -0.790480        1.130360   1.000000  -0.014868
    236         -0.787152        1.137432   1.000000  -0.012253
    237         -0.773420        1.153352   1.000000  -0.007523
    238         -0.750157        1.174430   1.000000  -0.003556
    239         -0.736724        1.196405   1.000000  -0.001449
    240         -0.722681        1.208632   1.000000  -0.000836
    241         -0.714345        1.220656   1.000000  -0.000471
    242         -0.692515        1.232261   1.000000  -0.000263
    243         -0.670165        1.243888   1.000000  -0.000142
    244         -0.661353        1.253589   1.000000  -0.000083
    245         -0.641650        1.257887   1.000000  -0.000065
    246         -0.630830        1.264826   1.000000  -0.000043
    247         -0.618942        1.282197   1.000000  -0.000015
    248         -0.593912        1.286017   1.000000  -0.000012
    249         -0.582991        1.326008   1.000000  -0.000001
    250         -0.576238        1.340266   1.000000  -0.000000
    251         -0.568433        1.348062   1.000000  -0.000000
    252         -0.554120        1.356012   1.000000  -0.000000
    253         -0.536725        1.366873   1.000000  -0.000000
    254         -0.517403        1.387295   1.000000  -0.000000
    255         -0.510951        1.414797   1.000000  -0.000000
    256         -0.495394        1.443309   1.000000  -0.000000
    257         -0.477157        1.454038   1.000000  -0.000000
    258         -0.471644        1.468229   1.000000  -0.000000
    259         -0.456956        1.487281   1.000000  -0.000000
    260         -0.449540        1.494652   1.000000  -0.000000
    261         -0.441962        1.500671   1.000000  -0.000000
    262         -0.423707        1.520253   1.000000  -0.000000
    263         -0.411970        1.548061   1.000000  -0.000000
    264         -0.406756        1.552164   1.000000  -0.000000
    265         -0.393727        1.557116   1.000000  -0.000000
    266         -0.390109        1.590046   1.000000  -0.000000
    267         -0.372382        1.607997   1.000000  -0.000000
    268         -0.371545        1.610854   1.000000  -0.000000
    269         -0.353829        1.643543   1.000000  -0.000000
    270         -0.345795        1.649694   1.000000  -0.000000
    271         -0.335806        1.662719   1.000000  -0.000000
    272         -0.324097        1.680116   1.000000  -0.000000
    273         -0.316078        1.691904   1.000000  -0.000000
    274         -0.311359        1.717062   1.000000  -0.000000
    275         -0.302481        1.722381   1.000000  -0.000000
    276         -0.292263        1.745977   1.000000  -0.000000
    277         -0.272283        1.761576   1.000000  -0.000000
    278         -0.265737        1.766767   1.000000  -0.000000
    279         -0.258053        1.774964   1.000000  -0.000000
    280         -0.241631        1.787898   1.000000  -0.000000
    281         -0.234690        1.796025   1.000000  -0.000000
    282         -0.218079        1.822144   1.000000  -0.000000
    283         -0.214407        1.843758   1.000000  -0.000000
    284         -0.208681        1.865989   1.000000  -0.000000
    285         -0.194644        1.876905   1.000000  -0.000000
    286         -0.174883        1.901367   1.000000  -0.000000
    287         -0.157363        1.926313   1.000000  -0.000000
    288         -0.155093        1.932742   1.000000  -0.000000
    289         -0.145099        1.947626   1.000000  -0.000000
    290         -0.127140        1.964241   1.000000  -0.000000
    291         -0.120906        1.984955   1.000000  -0.000000
    292         -0.108878        1.996247   1.000000  -0.000000
    293         -0.093731        2.014514   1.000000  -0.000000
    294         -0.081311        2.019970   1.000000  -0.000000
    295         -0.077359        2.037314   1.000000  -0.000000
    296         -0.049676        2.045995   1.000000  -0.000000
    297         -0.033446        2.050665   1.000000  -0.000000
    298         -0.024263        2.063367   1.000000  -0.000000
    299         -0.011964        2.075731   1.000000  -0.000000
    300         -0.010295        2.089038   1.000000  -0.000000
    301          0.036551        2.094442   1.000000  -0.000000
    302          0.058868        2.102571   1.000000  -0.000000
    303          0.064464        2.134777   1.000000  -0.000000
    304          0.078092        2.135916   1.000000  -0.000000
    305          0.120863        2.150356   1.000000  -0.000000
    306          0.130469        2.160163   1.000000  -0.000000
    307          0.135829        2.163954   1.000000  -0.000000
    308          0.156359        2.189721   1.000000  -0.000000
    309          0.166433        2.200192   1.000000  -0.000000
    310          0.197839        2.202979   1.000000  -0.000000
    311          0.218578        2.210438   1.000000  -0.000000
    312          0.241877        2.221895   1.000000  -0.000000
    313          0.262998        2.226900   1.000000  -0.000000
    314          0.294731        2.235383   1.000000  -0.000000
    315          0.318325        2.250133   1.000000  -0.000000
    316          0.321167        2.258056   1.000000  -0.000000
    317          0.353336        2.270132   1.000000  -0.000000
    318          0.366204        2.271999   1.000000  -0.000000
    319          0.378877        2.278266   1.000000  -0.000000
    320          0.397422        2.292593   1.000000  -0.000000
    321          0.453447        2.300986   1.000000  -0.000000
    322          0.483995        2.304543   1.000000  -0.000000
    323          0.526023        2.309702   1.000000  -0.000000
    324          0.534396        2.322731   1.000000  -0.000000
    325          0.557973        2.337910   1.000000  -0.000000
    326          0.572000        2.345198   1.000001  -0.000000
    327          0.584540        2.360496   1.000001  -0.000000
    328          0.603233        2.370338   1.000005  -0.000000
    329          0.636266        2.378569   1.000039  -0.000000
    330          0.655861        2.393298   1.000119  -0.000000
    331          0.670263        2.402820   1.000257  -0.000000
    332          0.695348        2.410939   1.000876  -0.000000
    333          0.707714        2.422074   1.001523  -0.000000
    334          0.735659        2.436072   1.004639  -0.000000
    335          0.755380        2.448047   1.009048  -0.000000
    336          0.756827        2.458236   1.009464  -0.000000
    337          0.795111        2.474192   1.024744  -0.000000
    338          0.840313        2.491522   1.033174  -0.000000
    339          0.897500        2.497624   0.891197  -0.000000
    340          0.958392        2.510500   0.441707  -0.000000
    341          0.997290        2.516940   0.153809  -0.000000
    342          1.035082        2.518316   0.001313  -0.000000
    343          1.060334        2.540877  -0.032041  -0.000000
    344          1.110219        2.543447  -0.023652  -0.000000
    345          1.146300        2.567704  -0.009419  -0.000000
    346          1.179563        2.595038  -0.002914  -0.000000
    347          1.208578        2.603858  -0.000839  -0.000000
    348          1.233301        2.612939  -0.000249  -0.000000
    349          1.259394        2.614569  -0.000060  -0.000000
    350          1.294406        2.628307  -0.000007  -0.000000
    351          1.326662        2.636689  -0.000001  -0.000000
    352          1.346336        2.650052  -0.000000  -0.000000
    353          1.396832        2.695959  -0.000000  -0.000000
    354          1.424029        2.703377  -0.000000  -0.000000
    355          1.438109        2.736770  -0.000000  -0.000000
    356          1.442560        2.757039  -0.000000  -0.000000
    357          1.486668        2.774458  -0.000000  -0.000000
    358          1.492294        2.801711  -0.000000  -0.000000
    359          1.520186        2.821555  -0.000000  -0.000000
    360          1.524176        2.831294  -0.000000  -0.000000
    361          1.547021        2.856074  -0.000000  -0.000000
    362          1.597305        2.871807  -0.000000  -0.000000
    363          1.617271        2.920725  -0.000000  -0.000000
    364          1.642575        2.957875  -0.000000  -0.000000
    365          1.664387        2.975493  -0.000000  -0.000000
    366          1.711643        2.997709  -0.000000  -0.000000
    367          1.731490        3.012563  -0.000000  -0.000000
    368          1.761007        3.026225  -0.000000  -0.000000
    369          1.774045        3.053376  -0.000000  -0.000000
    370          1.804257        3.073229  -0.000000  -0.000000
    371          1.829909        3.104297  -0.000000  -0.000000
 
  0.2500000E+00  0.6721729E-20  0.0000000E+00  0.1250000E+00
      1        -42.853098      -43.369116   1.000000   1.000000
      2        -42.840274      -43.321016   1.000000   1.000000
      3        -42.823101      -43.283973   1.000000   1.000000
      4        -42.811674      -43.272483   1.000000   1.000000
      5        -42.799716      -43.213346   1.000000   1.000000
      6        -42.784055      -43.208101   1.000000   1.000000
      7        -42.778488      -43.195217   1.000000   1.000000
      8        -42.763190      -43.186111   1.000000   1.000000
      9        -42.760485      -43.172482   1.000000   1.000000
     10        -42.737649      -43.167470   1.000000   1.000000
     11        -42.735296      -43.166300   1.000000   1.000000
     12        -42.729861      -43.152885   1.000000   1.000000
     13        -42.272186      -43.151576   1.000000   1.000000
     14        -42.214064      -43.151005   1.000000   1.000000
     15        -42.143521      -43.126508   1.000000   1.000000
     16        -42.089033      -43.125772   1.000000   1.000000
     17        -42.057651      -43.089525   1.000000   1.000000
     18        -42.046209      -43.077769   1.000000   1.000000
     19        -42.016101      -42.838893   1.000000   1.000000
     20        -42.006504      -42.769043   1.000000   1.000000
     21        -42.003568      -42.757585   1.000000   1.000000
     22        -41.866647      -42.674790   1.000000   1.000000
     23        -41.865147      -42.671316   1.000000   1.000000
     24        -41.846612      -42.586980   1.000000   1.000000
     25        -41.841211      -42.232189   1.000000   1.000000
     26        -41.839978      -42.116375   1.000000   1.000000
     27        -41.834585      -42.041079   1.000000   1.000000
     28        -41.820429      -41.981761   1.000000   1.000000
     29        -41.819469      -41.864686   1.000000   1.000000
     30        -41.816831      -41.652429   1.000000   1.000000
     31        -41.815483      -40.482501   1.000000   1.000000
     32        -41.810866      -40.477990   1.000000   1.000000
     33        -41.797644      -40.161042   1.000000   1.000000
     34        -41.792763      -40.079286   1.000000   1.000000
     35        -41.788668      -40.052661   1.000000   1.000000
     36        -41.788057      -39.997549   1.000000   1.000000
     37        -41.781144      -39.970797   1.000000   1.000000
     38        -41.772315      -39.961742   1.000000   1.000000
     39        -41.761642      -39.903284   1.000000   1.000000
     40        -40.316881      -39.843616   1.000000   1.000000
     41        -40.291307      -39.763145   1.000000   1.000000
     42        -40.181085      -39.672053   1.000000   1.000000
     43        -15.394607      -15.408678   1.000000   1.000000
     44        -15.379197      -15.399046   1.000000   1.000000
     45        -15.350131      -15.360893   1.000000   1.000000
     46        -15.345952      -15.354288   1.000000   1.000000
     47        -15.311552      -15.324185   1.000000   1.000000
     48         -7.371808       -7.394125   1.000000   1.000000
     49         -7.069971       -6.977208   1.000000   1.000000
     50         -6.126647       -5.966976   1.000000   1.000000
     51         -6.017758       -5.880269   1.000000   1.000000
     52         -5.224365       -4.998689   1.000000   1.000000
     53         -5.143410       -4.959542   1.000000   1.000000
     54         -5.083990       -4.914620   1.000000   1.000000
     55         -4.799239       -4.501628   1.000000   1.000000
     56         -4.533451       -4.202660   1.000000   1.000000
     57         -4.501674       -4.182639   1.000000   1.000000
     58         -4.460141       -4.151064   1.000000   1.000000
     59         -4.401748       -4.131160   1.000000   1.000000
     60         -4.373625       -4.076249   1.000000   1.000000
     61         -4.228059       -3.789655   1.000000   1.000000
     62         -4.133486       -3.588265   1.000000   1.000000
     63         -4.028564       -3.406964   1.000000   1.000000
     64         -3.971236       -3.329675   1.000000   1.000000
     65         -3.956952       -3.306818   1.000000   1.000000
     66         -3.891351       -3.296768   1.000000   1.000000
     67         -3.855755       -3.260034   1.000000   1.000000
     68         -3.777500       -3.220190   1.000000   1.000000
     69         -3.760573       -3.178988   1.000000   1.000000
     70         -3.747073       -3.080740   1.000000   1.000000
     71         -3.721697       -2.881520   1.000000   1.000000
     72         -3.662654       -2.826478   1.000000   1.000000
     73         -3.618064       -2.799868   1.000000   1.000000
     74         -3.560744       -2.773865   1.000000   1.000000
     75         -3.547300       -2.651890   1.000000   1.000000
     76         -3.530495       -2.618224   1.000000   1.000000
     77         -3.508098       -2.594709   1.000000   1.000000
     78         -3.482498       -2.569755   1.000000   1.000000
     79         -3.452984       -2.534681   1.000000   1.000000
     80         -3.430130       -2.467627   1.000000   1.000000
     81         -3.401460       -2.457896   1.000000   1.000000
     82         -3.341576       -2.413327   1.000000   1.000000
     83         -3.301851       -2.328659   1.000000   1.000000
     84         -3.274756       -2.322347   1.000000   1.000000
     85         -3.254731       -2.298437   1.000000   1.000000
     86         -3.241018       -2.232898   1.000000   1.000000
     87         -3.235091       -2.201488   1.000000   1.000000
     88         -3.218179       -2.142779   1.000000   1.000000
     89         -3.208416       -2.118820   1.000000   1.000000
     90         -3.197520       -2.062779   1.000000   1.000000
     91         -3.185736       -2.047650   1.000000   1.000000
     92         -3.158577       -2.033886   1.000000   1.000000