       N       E                     dE             d eps       ncg     rms          rms(c)
DAV:   1    -0.503730993496E+03   -0.50373E+03   -0.29465E-01 19696   0.308E+00
DAV:   2    -0.503734421703E+03   -0.34282E-02   -0.34282E-02 20008   0.431E-01
DAV:   3    -0.503734638999E+03   -0.21730E-03   -0.21729E-03 24024   0.519E-02
DAV:   4    -0.503734645054E+03   -0.60554E-05   -0.60554E-05 20600   0.113E-02
DAV:   5    -0.503734645533E+03   -0.47937E-06   -0.47927E-06 12720   0.268E-03
   1 F= -.50373465E+03 E0= -.50373520E+03  d E =0.166725E-02  mag=   109.6275
