 vasp.6.3.2 27Jun22 (build Mar 15 2023 15:45:48) complex                        
  
 executed on             LinuxIFC date 2025.02.11  10:40:15
 running on    4 total cores
 distrk:  each k-point on    1 cores,    4 groups
 distr:  one band on NCORE=   1 cores,    1 groups


--------------------------------------------------------------------------------------------------------


 INCAR:
   SYSTEM = Fe2O3
   ISTART = 1
   ICHARG = 11
   LWAVE = .TRUE.
   LCHARG = .TRUE.
   LVHAR = .FALSE.
   LELF = .FALSE.
   LORBIT = 11
   ISMEAR = 1            (Gaussian smearing
   SIGMA = 0.1        (Smearing value in eV
   NELM = 100           (Max electronic SCF steps)
   NELMIN = 5           (Min electronic SCF steps)
   EDIFF = 1E-6        (SCF energy convergence
   GGA = PE
   LREAL = Auto
   PREC = Accurate
   ENCUT = 450
   NSW = 0         (Max electronic SCF steps)
   IBRION = 2           (Algorithm: 0-MD
   POTIM = 0.01
   ISIF = 2
   EDIFFG = -5E-2
   ALGO = Normal
   ISPIN = 2
   NCORE = 4
   KPAR = 8
   LDIPOL = .TRUE.
   IDIPOL = 3
   AMIX = 0.05
   BMIX = 0.0001
   IMIX = 4

 POTCAR:    PAW_PBE Fe 06Sep2000                  
 POTCAR:    PAW_PBE Cr_pv 02Aug2007               
 POTCAR:    PAW_PBE Pb_d 06Sep2000                
 -----------------------------------------------------------------------------
|                                                                             |
|           W    W    AA    RRRRR   N    N  II  N    N   GGGG   !!!           |
|           W    W   A  A   R    R  NN   N  II  NN   N  G    G  !!!           |
|           W    W  A    A  R    R  N N  N  II  N N  N  G       !!!           |
|           W WW W  AAAAAA  RRRRR   N  N N  II  N  N N  G  GGG   !            |
|           WW  WW  A    A  R   R   N   NN  II  N   NN  G    G                |
|           W    W  A    A  R    R  N    N  II  N    N   GGGG   !!!           |
|                                                                             |
|     You use a magnetic or noncollinear calculation, but did not specify     |
|     the initial magnetic moment with the MAGMOM tag. Note that a            |
|     default of 1 will be used for all atoms. This ferromagnetic setup       |
|     may break the symmetry of the crystal, in particular it may rule        |
|     out finding an antiferromagnetic solution. Thence, we recommend         |
|     setting the initial magnetic moment manually or verifying carefully     |
|     that this magnetic setup is desired.                                    |
|                                                                             |
 -----------------------------------------------------------------------------

 POTCAR:    PAW_PBE Fe 06Sep2000                  
   VRHFIN =Fe:  d7 s1                                                                               
   LEXCH  = PE                                                                                      
   EATOM  =   594.3153 eV,   43.6809 Ry                                                             
                                                                                                    
   TITEL  = PAW_PBE Fe 06Sep2000                                                                    
   LULTRA =        F    use ultrasoft PP ?                                                          
   IUNSCR =        1    unscreen: 0-lin 1-nonlin 2-no                                               
   RPACOR =    2.000    partial core radius                                                         
   POMASS =   55.847; ZVAL   =    8.000    mass and valenz                                          
   RCORE  =    2.300    outmost cutoff radius                                                       
   RWIGS  =    2.460; RWIGS  =    1.302    wigner-seitz radius (au A)                               
   ENMAX  =  267.882; ENMIN  =  200.911 eV                                                          
   RCLOC  =    1.701    cutoff for local pot                                                        
   LCOR   =        T    correct aug charges                                                         
   LPAW   =        T    paw PP                                                                      
   EAUG   =  511.368                                                                                
   DEXC   =    0.000                                                                                
   RMAX   =    2.356    core radius for proj-oper                                                   
   RAUG   =    1.300    factor for augmentation sphere                                              
   RDEP   =    2.442    radius for radial grids                                                     
   RDEPT  =    1.890    core radius for aug-charge                                                  
                                                                                                    
   Atomic configuration                                                                             
    9 entries                                                                                       
     n  l   j            E        occ.                                                              
     1  0  0.50     -6993.8440   2.0000                                                             
     2  0  0.50      -814.6047   2.0000                                                             
     2  1  1.50      -693.3689   6.0000                                                             
     3  0  0.50       -89.4732   2.0000                                                             
     3  1  1.50       -55.6373   6.0000                                                             
     3  2  2.50        -3.8151   7.0000                                                             
     4  0  0.50        -4.2551   1.0000                                                             
     4  1  1.50        -3.4015   0.0000                                                             
     4  3  2.50        -1.3606   0.0000                                                             
   Description                                                                                      
     l       E           TYP  RCUT    TYP  RCUT                                                     
     2     -3.8151135     23  2.300                                                                 
     2     -5.1756961     23  2.300                                                                 
     0     -4.2550963     23  2.300                                                                 
     0      7.2035603     23  2.300                                                                 
     1     -2.7211652     23  2.300                                                                 
     1     18.4316424     23  2.300                                                                 
  local pseudopotential read in
  partial core-charges read in
  partial kinetic energy density read in
  atomic valenz-charges read in
  non local Contribution for L=           2  read in
    real space projection operators read in
  non local Contribution for L=           2  read in
    real space projection operators read in
  non local Contribution for L=           0  read in
    real space projection operators read in
  non local Contribution for L=           0  read in
    real space projection operators read in
  non local Contribution for L=           1  read in
    real space projection operators read in
  non local Contribution for L=           1  read in
    real space projection operators read in
    PAW grid and wavefunctions read in
 
   number of l-projection  operators is LMAX  =           6
   number of lm-projection operators is LMMAX =          18
 
 POTCAR:    PAW_PBE Cr_pv 02Aug2007               
   VRHFIN =Cr : p6d5s1                                                                              
   LEXCH  = PE                                                                                      
   EATOM  =  1647.9177 eV,  121.1185 Ry                                                             
                                                                                                    
   TITEL  = PAW_PBE Cr_pv 02Aug2007                                                                 
   LULTRA =        F    use ultrasoft PP ?                                                          
   IUNSCR =        1    unscreen: 0-lin 1-nonlin 2-no                                               
   RPACOR =    2.080    partial core radius                                                         
   POMASS =   51.996; ZVAL   =   12.000    mass and valenz                                          
   RCORE  =    2.300    outmost cutoff radius                                                       
   RWIGS  =    2.500; RWIGS  =    1.323    wigner-seitz radius (au A)                               
   ENMAX  =  265.681; ENMIN  =  199.261 eV                                                          
   ICORE  =        3    local potential                                                             
   LCOR   =        T    correct aug charges                                                         
   LPAW   =        T    paw PP                                                                      
   EAUG   =  519.424                                                                                
   DEXC   =    0.000                                                                                
   RMAX   =    2.356    core radius for proj-oper                                                   
   RAUG   =    1.300    factor for augmentation sphere                                              
   RDEP   =    2.447    radius for radial grids                                                     
   RDEPT  =    1.882    core radius for aug-charge                                                  
                                                                                                    
   Atomic configuration                                                                             
    8 entries                                                                                       
     n  l   j            E        occ.                                                              
     1  0  0.50     -5880.4963   2.0000                                                             
     2  0  0.50      -667.0865   2.0000                                                             
     2  1  1.50      -560.6250   6.0000                                                             
     3  0  0.50       -73.9860   2.0000                                                             
     3  1  1.50       -45.4378   6.0000                                                             
     3  2  2.50        -2.9137   5.0000                                                             
     4  0  0.50        -4.0071   1.0000                                                             
     4  3  2.50        -1.3606   0.0000                                                             
   Description                                                                                      
     l       E           TYP  RCUT    TYP  RCUT                                                     
     1    -45.4377911     23  2.000                                                                 
     1      1.3605826     23  2.000                                                                 
     2     -2.9136672     23  2.300                                                                 
     2     -4.2742498     23  2.300                                                                 
     0     -4.0071320     23  2.300                                                                 
     0      9.4498803     23  2.300                                                                 
     3      2.7211652     23  2.300                                                                 
  local pseudopotential read in
  partial core-charges read in
  partial kinetic energy density read in
  atomic valenz-charges read in
  non local Contribution for L=           1  read in
    real space projection operators read in
  non local Contribution for L=           1  read in
    real space projection operators read in
  non local Contribution for L=           2  read in
    real space projection operators read in
  non local Contribution for L=           2  read in
    real space projection operators read in
  non local Contribution for L=           0  read in
    real space projection operators read in
  non local Contribution for L=           0  read in
    real space projection operators read in
    PAW grid and wavefunctions read in
 
   number of l-projection  operators is LMAX  =           6
   number of lm-projection operators is LMMAX =          18
 
 POTCAR:    PAW_PBE Pb_d 06Sep2000                
   VRHFIN =Pb:                                                                                      
   LEXCH  = PE                                                                                      
   EATOM  =  1661.6185 eV,  122.1255 Ry                                                             
                                                                                                    
   TITEL  = PAW_PBE Pb_d 06Sep2000                                                                  
   LULTRA =        F    use ultrasoft PP ?                                                          
   IUNSCR =        1    unscreen: 0-lin 1-nonlin 2-no                                               
   RPACOR =    2.200    partial core radius                                                         
   POMASS =  207.200; ZVAL   =   14.000    mass and valenz                                          
   RCORE  =    2.500    outmost cutoff radius                                                       
   RWIGS  =    3.260; RWIGS  =    1.725    wigner-seitz radius (au A)                               
   ENMAX  =  237.835; ENMIN  =  178.376 eV                                                          
   ICORE  =        3    local potential                                                             
   LCOR   =        T    correct aug charges                                                         
   LPAW   =        T    paw PP                                                                      
   EAUG   =  391.914                                                                                
   DEXC   =    0.000                                                                                
   RMAX   =    2.565    core radius for proj-oper                                                   
   RAUG   =    1.300    factor for augmentation sphere                                              
   RDEP   =    2.643    radius for radial grids                                                     
   RDEPT  =    2.092    core radius for aug-charge                                                  
                                                                                                    
   Atomic configuration                                                                             
   16 entries                                                                                       
     n  l   j            E        occ.                                                              
     1  0  0.50    -88091.8466   2.0000                                                             
     2  0  0.50    -15753.4197   2.0000                                                             
     2  1  1.50    -13508.1797   6.0000                                                             
     3  0  0.50     -3781.7194   2.0000                                                             
     3  1  1.50     -3138.2529   6.0000                                                             
     3  2  2.50     -2483.2977  10.0000                                                             
     4  0  0.50      -856.2895   2.0000                                                             
     4  1  1.50      -645.4942   6.0000                                                             
     4  2  2.50      -401.8768  10.0000                                                             
     4  3  3.50      -132.9059  14.0000                                                             
     5  0  0.50      -144.0950   2.0000                                                             
     5  1  1.50       -85.7879   6.0000                                                             
     5  2  2.50       -21.1769  10.0000                                                             
     6  0  0.50       -12.0372   2.0000                                                             
     6  1  1.50        -3.4971   2.0000                                                             
     5  3  2.50        -2.7212   0.0000                                                             
   Description                                                                                      
     l       E           TYP  RCUT    TYP  RCUT                                                     
     2    -21.1768523     23  2.500                                                                 
     2      1.3605826     23  2.500                                                                 
     0    -12.0371562     23  2.500                                                                 
     0     13.6058260     23  2.500                                                                 
     1     -3.4971339     23  2.500                                                                 
     1     13.6058260     23  2.500                                                                 
     3     -1.3605826      7  2.500                                                                 
  local pseudopotential read in
  partial core-charges read in
  partial kinetic energy density read in
  atomic valenz-charges read in
  non local Contribution for L=           2  read in
    real space projection operators read in
  non local Contribution for L=           2  read in
    real space projection operators read in
  non local Contribution for L=           0  read in
    real space projection operators read in
  non local Contribution for L=           0  read in
    real space projection operators read in
  non local Contribution for L=           1  read in
    real space projection operators read in
  non local Contribution for L=           1  read in
    real space projection operators read in
    PAW grid and wavefunctions read in
 
   number of l-projection  operators is LMAX  =           6
   number of lm-projection operators is LMMAX =          18
 
 Optimization of the real space projectors (new method)

 maximal supplied QI-value         = 16.25
 optimisation between [QCUT,QGAM] = [ 10.73, 21.61] = [ 32.22,130.83] Ry 
 Optimized for a Real-space Cutoff    1.42 Angstroem

   l    n(q)    QCUT    max X(q) W(low)/X(q) W(high)/X(q)  e(spline) 
   2      8    10.726    80.901    0.24E-03    0.41E-03    0.22E-06
   2      8    10.726    75.754    0.24E-03    0.41E-03    0.23E-06
   0      9    10.726    58.752    0.21E-03    0.17E-03    0.42E-07
   0      9    10.726    30.679    0.19E-03    0.16E-03    0.39E-07
   1      9    10.726    17.977    0.20E-03    0.14E-03    0.16E-06
   1      9    10.726    13.559    0.17E-03    0.11E-03    0.13E-06
 Optimization of the real space projectors (new method)

 maximal supplied QI-value         = 16.25
 optimisation between [QCUT,QGAM] = [ 10.73, 21.61] = [ 32.22,130.83] Ry 
 Optimized for a Real-space Cutoff    1.51 Angstroem

   l    n(q)    QCUT    max X(q) W(low)/X(q) W(high)/X(q)  e(spline) 
   1      9    10.726     3.262    0.86E-04    0.42E-04    0.11E-06
   1      9    10.726     5.741    0.19E-03    0.70E-04    0.20E-06
   2      9    10.726    60.438    0.11E-03    0.51E-04    0.13E-06
   2      9    10.726    55.380    0.12E-03    0.51E-04    0.13E-06
   0     10    10.726    80.273    0.42E-04    0.15E-05    0.77E-07
   0     10    10.726    36.654    0.34E-04    0.84E-06    0.69E-07
 Optimization of the real space projectors (new method)

 maximal supplied QI-value         = 15.12
 optimisation between [QCUT,QGAM] = [ 10.73, 21.62] = [ 32.26,130.87] Ry 
 Optimized for a Real-space Cutoff    1.42 Angstroem

   l    n(q)    QCUT    max X(q) W(low)/X(q) W(high)/X(q)  e(spline) 
   2      8    10.734     3.846    0.11E-03    0.12E-04    0.36E-07
   2      8    10.734     8.593    0.24E-03    0.21E-03    0.13E-06
   0      9    10.734    20.082    0.65E-04    0.10E-03    0.71E-07
   0      9    10.734     8.597    0.91E-04    0.14E-03    0.10E-06
   1      9    10.734    33.223    0.24E-03    0.75E-04    0.13E-06
   1      9    10.734    15.899    0.21E-03    0.70E-04    0.12E-06
  PAW_PBE Fe 06Sep2000                  :
 energy of atom  1       EATOM= -594.3153
 kinetic energy error for atom=    0.0034 (will be added to EATOM!!)
  PAW_PBE Cr_pv 02Aug2007               :
 energy of atom  2       EATOM=-1647.9177
 kinetic energy error for atom=    0.0115 (will be added to EATOM!!)
  PAW_PBE Pb_d 06Sep2000                :
 energy of atom  3       EATOM=-1661.6185
 kinetic energy error for atom=    0.0063 (will be added to EATOM!!)
 
 
 POSCAR: Generated by VASPKIT code
  positions in direct lattice
  velocities in cartesian coordinates
 exchange correlation table for  LEXCH =        8
   RHO(1)=    0.500       N(1)  =     2000
   RHO(2)=  100.500       N(2)  =     4000

 VTST: version 4.2, (08/11/21)

 CHAIN: initializing optimizer
 
 OPT: Using VASP Conjugate-Gradient optimizer
 CHAIN: Read ICHAIN            0
 
 POSCAR: Generated by VASPKIT code
  positions in direct lattice
  velocities in cartesian coordinates
 


--------------------------------------------------------------------------------------------------------


 ion  position               nearest neighbor table
   1  0.001  1.000  0.243-  13 2.44   5 2.44  48 2.45   2 2.45  38 2.45  44 2.46  35 2.47  11 2.49
                            15 2.78  51 2.83   4 2.84  34 2.84   6 2.85  49 2.86
   2  0.166  0.167  0.303-  15 2.40  22 2.40  18 2.41   1 2.45   6 2.46   8 2.47  49 2.47  57 2.48
                             5 2.82  35 2.84   3 2.85  11 2.85   7 2.87
   3  0.499  0.161  0.302-  49 2.40  18 2.42   4 2.42  55 2.44   8 2.47  57 2.48  50 2.49  59 2.53
                            52 2.77  37 2.82   2 2.85   5 2.87   9 2.92  63 3.42
   4  0.668  0.001  0.243-   3 2.42   5 2.44  38 2.44  37 2.45  48 2.45  13 2.46  46 2.46  52 2.50
                            53 2.78  55 2.81  50 2.82  60 2.84   1 2.84  49 2.84
   5  0.836  0.168  0.302-  15 2.43   1 2.44   6 2.44  22 2.44  50 2.44   4 2.44  55 2.52  59 2.53
                            38 2.80   2 2.82  10 2.83  13 2.85   3 2.87
   6  0.000  0.335  0.242-   5 2.44  10 2.44  35 2.46  38 2.46  39 2.46   2 2.46  42 2.47   7 2.50
                            22 2.76  51 2.82  61 2.83  50 2.84   1 2.85   8 2.85
   7  0.169  0.504  0.304-  22 2.41  27 2.43  12 2.43  51 2.45  57 2.46   8 2.49   6 2.50  11 2.78
                             9 2.81  10 2.86  39 2.87   2 2.87
   8  0.335  0.333  0.243-  39 2.45  37 2.45  35 2.46  40 2.46   2 2.47   3 2.47   9 2.47   7 2.49
                            12 2.83  57 2.83  62 2.83  49 2.84  50 2.84   6 2.85
   9  0.498  0.505  0.303-  32 2.39  12 2.42  57 2.44  53 2.46   8 2.47  50 2.51  59 2.54  52 2.81
                             7 2.81  40 2.82  10 2.86   3 2.92
  10  0.834  0.501  0.301-  27 2.40  32 2.41  22 2.44   6 2.44  50 2.45  51 2.47  53 2.47  59 2.55
                            42 2.80  13 2.82   5 2.83   9 2.86   7 2.86
  11  0.168  0.831  0.304-  18 2.43  15 2.44  27 2.45  51 2.45  12 2.46  49 2.47   1 2.49   7 2.78
                            52 2.79  13 2.84   2 2.85  44 2.87
  12  0.333  0.666  0.243-   9 2.42   7 2.43  40 2.45  39 2.45  44 2.46  11 2.46  52 2.47  46 2.47
                            51 2.81   8 2.83  49 2.83  53 2.83  45 2.84
  13  0.836  0.833  0.302-  27 2.41  53 2.42  32 2.42   1 2.44  51 2.45  55 2.45  15 2.46   4 2.46
                            48 2.80  10 2.82  11 2.84   5 2.85  52 2.91
  14  0.001  0.001  0.002-  20 2.46  33 2.46  28 2.46  16 2.48  26 2.83  21 2.83  34 2.84  17 2.85
                            54 2.85
  15  0.002  0.004  0.361-   2 2.40   5 2.43  11 2.44  13 2.46   1 2.78  18 2.80  22 2.82  55 2.88
                            27 2.88
  16  0.168  0.170  0.063-  62 2.44  36 2.45  56 2.45  17 2.46  34 2.46  61 2.46  21 2.46  14 2.48
                            23 2.80  35 2.82  28 2.85  20 2.86  19 2.87
  17  0.335  0.003  0.003-  19 2.45  16 2.46  30 2.46  28 2.46  56 2.81  36 2.82  54 2.83  14 2.85
                            29 2.86
  18  0.329  0.004  0.362-   2 2.41   3 2.42  11 2.43  52 2.44  63 2.75  49 2.79  15 2.80  57 2.81
                            55 2.86
  19  0.505  0.169  0.061-  58 2.43  41 2.45  17 2.45  60 2.46  62 2.47  54 2.47  56 2.48  36 2.48
                            20 2.80  24 2.81  30 2.83  37 2.87  16 2.87
  20  0.833  0.167  0.062-  58 2.43  14 2.46  60 2.46  41 2.46  21 2.46  61 2.46  34 2.46  54 2.50
                            19 2.80  33 2.81  25 2.85  38 2.85  16 2.86
  21  0.000  0.335  0.002-  23 2.46  25 2.46  20 2.46  16 2.46  58 2.81  26 2.83  14 2.83  56 2.83
                            61 2.84
  22  0.003  0.336  0.360-   2 2.40   7 2.41  10 2.44   5 2.44   6 2.76  27 2.80  15 2.82  57 2.84
                            59 2.89
  23  0.168  0.499  0.063-  61 2.45  21 2.46  56 2.46  45 2.46  43 2.46  62 2.47  29 2.47  26 2.48
                            16 2.80  39 2.82  24 2.85  25 2.85  28 2.85
  24  0.501  0.499  0.062-  58 2.43  41 2.45  62 2.45  29 2.46  45 2.46  31 2.47  56 2.47  47 2.47
                            19 2.81  25 2.84  23 2.85  40 2.86  30 2.86
  25  0.834  0.502  0.062-  58 2.42  61 2.45  31 2.45  43 2.46  47 2.46  26 2.46  21 2.46  41 2.46
                            33 2.83  24 2.84  42 2.84  23 2.85  20 2.85
  26  0.001  0.668  0.002-  25 2.46  28 2.46  23 2.48  33 2.48  21 2.83  14 2.83  29 2.84  43 2.85
                            31 2.85
  27  0.994  0.665  0.361-  10 2.40  13 2.41   7 2.43  11 2.45  32 2.78  22 2.80  51 2.80  15 2.88

  28  0.168  0.835  0.062-  34 2.45  36 2.46  43 2.46  45 2.46  17 2.46  29 2.46  26 2.46  14 2.46
                            44 2.83  16 2.85  30 2.85  23 2.85  33 2.86
  29  0.334  0.667  0.002-  24 2.46  28 2.46  23 2.47  30 2.47  56 2.83  45 2.83  31 2.84  26 2.84
                            17 2.86
  30  0.502  0.836  0.062-  60 2.44  54 2.45  36 2.45  17 2.46  47 2.46  31 2.47  45 2.47  29 2.47
                            33 2.83  19 2.83  46 2.85  28 2.85  24 2.86
  31  0.668  0.667  0.002-  25 2.45  24 2.47  30 2.47  33 2.47  54 2.80  58 2.81  29 2.84  26 2.85
                            47 2.85
  32  0.668  0.666  0.359-   9 2.39  10 2.41  13 2.42  52 2.43  53 2.73  27 2.78  55 2.79  59 2.85

  33  0.833  0.836  0.062-  60 2.44  34 2.46  47 2.46  14 2.46  54 2.46  31 2.47  43 2.47  26 2.48
                            20 2.81  30 2.83  25 2.83  48 2.85  28 2.86
  34  0.001  0.001  0.122-  28 2.45  33 2.46  35 2.46  38 2.46  44 2.46  16 2.46  20 2.46  48 2.47
                            43 2.83  14 2.84  61 2.84   1 2.84  36 2.85  60 2.85
  35  0.167  0.168  0.182-  34 2.46   8 2.46   6 2.46  62 2.46  36 2.46   1 2.47  61 2.47  49 2.49
                            39 2.81  16 2.82  44 2.83   2 2.84  38 2.84  37 2.86
  36  0.335  0.002  0.122-  16 2.45  30 2.45  28 2.46  37 2.46  44 2.46  46 2.46  35 2.46  19 2.48
                            62 2.81  17 2.82  60 2.84  34 2.85  45 2.85  49 2.87
  37  0.502  0.167  0.183-  62 2.44  50 2.44   4 2.45   8 2.45  60 2.46  41 2.46  36 2.46  49 2.47
                            46 2.82   3 2.82  40 2.84  38 2.84  35 2.86  19 2.87
  38  0.834  0.166  0.183-  50 2.44   4 2.44   1 2.45   6 2.46  61 2.46  34 2.46  60 2.46  41 2.47
                             5 2.80  48 2.82  37 2.84  35 2.84  20 2.85  42 2.86
  39  0.170  0.499  0.182-  62 2.45  12 2.45   8 2.45  45 2.45   6 2.46  51 2.46  61 2.46  43 2.47
                            35 2.81  23 2.82  40 2.84  44 2.86   7 2.87  42 2.89
  40  0.502  0.501  0.183-  50 2.45  12 2.45   8 2.46  47 2.46  41 2.46  62 2.47  53 2.47  45 2.47
                            42 2.81   9 2.82  37 2.84  39 2.84  46 2.84  24 2.86
  41  0.667  0.334  0.122-  19 2.45  24 2.45  37 2.46  20 2.46  42 2.46  40 2.46  25 2.46  38 2.47
                            58 2.81  61 2.82  62 2.82  50 2.83  60 2.84  47 2.84
  42  0.831  0.503  0.183-  47 2.44  50 2.45  41 2.46   6 2.47  61 2.47  43 2.47  51 2.47  53 2.48
                            10 2.80  40 2.81  48 2.82  25 2.84  38 2.86  39 2.89
  43  0.001  0.668  0.123-  25 2.46  48 2.46  28 2.46  44 2.46  23 2.46  42 2.47  39 2.47  33 2.47
                            51 2.82  61 2.83  34 2.83  45 2.84  26 2.85  47 2.85
  44  0.169  0.835  0.182-  51 2.45  49 2.46   1 2.46  45 2.46  34 2.46  36 2.46  12 2.46  43 2.46
                            46 2.82  35 2.83  28 2.83  48 2.85  39 2.86  11 2.87
  45  0.334  0.667  0.122-  39 2.45  23 2.46  28 2.46  44 2.46  24 2.46  46 2.46  30 2.47  40 2.47
                            29 2.83  47 2.84  12 2.84  43 2.84  62 2.84  36 2.85
  46  0.500  0.835  0.183-  53 2.43  49 2.44  60 2.45   4 2.46  36 2.46  47 2.46  45 2.46  12 2.47
                            37 2.82  44 2.82  40 2.84  30 2.85  48 2.86  52 2.86
  47  0.667  0.668  0.123-  42 2.44  25 2.46  30 2.46  40 2.46  33 2.46  48 2.46  46 2.46  24 2.47
                            60 2.82  45 2.84  41 2.84  53 2.85  31 2.85  43 2.85
  48  0.835  0.834  0.183-   1 2.45  53 2.45   4 2.45  43 2.46  51 2.46  47 2.46  60 2.46  34 2.47
                            13 2.80  42 2.82  38 2.82  33 2.85  44 2.85  46 2.86
  49  0.336  0.999  0.244-   3 2.40  52 2.41  46 2.44  44 2.46  11 2.47   2 2.47  37 2.47  35 2.49
                            18 2.79  12 2.83   4 2.84   8 2.84   1 2.86  36 2.87
  50  0.668  0.333  0.242-   5 2.44  37 2.44  38 2.44  10 2.45  40 2.45  42 2.45   3 2.49   9 2.51
                             4 2.82  41 2.83   6 2.84   8 2.84  53 2.90  59 2.93
  51  0.004  0.667  0.242-  44 2.45   7 2.45  13 2.45  11 2.45  39 2.46  48 2.46  10 2.47  42 2.47
                            27 2.80  12 2.81  43 2.82   6 2.82   1 2.83  53 2.90
  52  0.495  0.835  0.304-  55 2.40  49 2.41  32 2.43  18 2.44  53 2.46  12 2.47   4 2.50   3 2.77
                            11 2.79   9 2.81  46 2.86  13 2.91
  53  0.665  0.674  0.243-  13 2.42  46 2.43  48 2.45  52 2.46   9 2.46  40 2.47  10 2.47  42 2.48
                            32 2.73   4 2.78  12 2.83  47 2.85  51 2.90  50 2.90
  54  0.666  0.997  0.000-  30 2.45  33 2.46  19 2.47  20 2.50  31 2.80  17 2.83  14 2.85  60 2.89
                            58 2.89
  55  0.664  0.994  0.362-  52 2.40   3 2.44  13 2.45   5 2.52  63 2.78  32 2.79   4 2.81  18 2.86
                            59 2.87  15 2.88
  56  0.332  0.334  0.001-  16 2.45  23 2.46  24 2.47  19 2.48  17 2.81  29 2.83  21 2.83  62 2.86
                            58 2.89
  57  0.336  0.335  0.363-   9 2.44   7 2.46   2 2.48   3 2.48  59 2.81  18 2.81   8 2.83  22 2.84
                            63 2.91
  58  0.670  0.337  0.003-  25 2.42  19 2.43  24 2.43  20 2.43  31 2.81  41 2.81  21 2.81  56 2.89
                            54 2.89
  59  0.665  0.331  0.366-   3 2.53   5 2.53   9 2.54  10 2.55  57 2.81  63 2.84  32 2.85  55 2.87
                            22 2.89  50 2.93
  60  0.667  1.000  0.122-  33 2.44  30 2.44  46 2.45  37 2.46  20 2.46  38 2.46  19 2.46  48 2.46
                            47 2.82   4 2.84  41 2.84  36 2.84  34 2.85  54 2.89
  61  0.998  0.335  0.122-  25 2.45  23 2.45  38 2.46  39 2.46  20 2.46  16 2.46  42 2.47  35 2.47
                            41 2.82  43 2.83   6 2.83  21 2.84  34 2.84  62 2.89
  62  0.337  0.332  0.123-  37 2.44  16 2.44  39 2.45  24 2.45  35 2.46  40 2.47  23 2.47  19 2.47
                            36 2.81  41 2.82   8 2.83  45 2.84  56 2.86  61 2.89
  63  0.499  0.147  0.447-  18 2.75  55 2.78  59 2.84  57 2.91   3 3.42
 
  Warning from LATTYP: Monoclinic adjustment (A1->A3, A2->A1, A3->A2)!
  LATTYP: Found a simple monoclinic cell.
 ALAT       =     8.4969997406
 B/A-ratio  =     2.7768624260
 C/A-ratio  =     1.0042014647
 COS(beta)  =    -0.0000611195
  
  Lattice vectors:
  
 A1 = (  -0.0005193328,   8.4969997247,   0.0000000000)
 A2 = (   0.0000000000,   0.0000000000,  23.5949993134)
 A3 = (   8.5326995850,   0.0000000000,   0.0000000000)


Analysis of symmetry for initial positions (statically):
=====================================================================
 Subroutine PRICEL returns:
 Original cell was already a primitive cell.
 

 Routine SETGRP: Setting up the symmetry group for a 
 simple monoclinic supercell.


 Subroutine GETGRP returns: Found  1 space group operations
 (whereof  1 operations were pure point group operations)
 out of a pool of  4 trial point group operations.


The static configuration has the point symmetry C_1 .


Analysis of symmetry for dynamics (positions and initial velocities):
=====================================================================
 Subroutine PRICEL returns:
 Original cell was already a primitive cell.
 

 Routine SETGRP: Setting up the symmetry group for a 
 simple monoclinic supercell.


 Subroutine GETGRP returns: Found  1 space group operations
 (whereof  1 operations were pure point group operations)
 out of a pool of  4 trial point group operations.


The dynamic configuration has the point symmetry C_1 .


Analysis of constrained symmetry for selective dynamics:
=====================================================================
 Subroutine PRICEL returns:
 Original cell was already a primitive cell.
 

 Routine SETGRP: Setting up the symmetry group for a 
 simple monoclinic supercell.


 Subroutine GETGRP returns: Found  1 space group operations
 (whereof  1 operations were pure point group operations)
 out of a pool of  4 trial point group operations.


The constrained configuration has the point symmetry C_1 .


Analysis of structural, dynamic, and magnetic symmetry:
=====================================================================
 Subroutine PRICEL returns:
 Original cell was already a primitive cell.
 

 Routine SETGRP: Setting up the symmetry group for a 
 simple monoclinic supercell.


 Subroutine GETGRP returns: Found  1 space group operations
 (whereof  1 operations were pure point group operations)
 out of a pool of  4 trial point group operations.


The overall configuration has the point symmetry C_1 .


 Subroutine INISYM returns: Found  1 space group operations
 (whereof  1 operations are pure point group operations),
 and found     1 'primitive' translations


----------------------------------------------------------------------------------------

                                     Primitive cell                                     

  volume of cell :    1710.6928

  direct lattice vectors                    reciprocal lattice vectors
     8.532699585  0.000000000  0.000000000     0.117196204  0.000007163  0.000000000
    -0.000519333  8.496999725  0.000000000     0.000000000  0.117688600  0.000000000
     0.000000000  0.000000000 23.594999313     0.000000000  0.000000000  0.042381862

  length of vectors
     8.532699585  8.496999741 23.594999313     0.117196204  0.117688600  0.042381862

  position of ions in fractional coordinates (direct lattice)
     0.000860000  0.999930000  0.242710000
     0.165631973  0.166892718  0.302672129
     0.499458753  0.160831561  0.302096047
     0.668220000  0.001070000  0.242720000
     0.835678031  0.167611424  0.301580443
     0.000440000  0.334970000  0.242400000
     0.169085963  0.504329326  0.303592075
     0.334690000  0.333050000  0.242670000
     0.498058979  0.504772327  0.302864734
     0.833567193  0.500663600  0.301424840
     0.168423866  0.831252326  0.303980632
     0.333420000  0.665550000  0.242610000
     0.836082977  0.832583928  0.301813353
     0.000640000  0.001190000  0.001990000
     0.001601287  0.003552202  0.360720321
     0.168430000  0.169620000  0.062690000
     0.334600000  0.002970000  0.002540000
     0.329312876  0.004237115  0.361922359
     0.504630000  0.168500000  0.061200000
     0.832720000  0.166700000  0.061930000
     0.000040000  0.334670000  0.002130000
     0.003418929  0.335599740  0.359551217
     0.167570000  0.498950000  0.062680000
     0.500990000  0.498960000  0.062060000
     0.833930000  0.502340000  0.062350000
     0.001210000  0.667850000  0.001880000
     0.994360394  0.664533372  0.360644686
     0.167920000  0.834620000  0.062280000
     0.334370000  0.666640000  0.002250000
     0.501520000  0.835630000  0.062170000
     0.667530000  0.667050000  0.001750000
     0.668209346  0.665997143  0.358788747
     0.832930000  0.835840000  0.062350000
     0.001210000  0.000980000  0.122250000
     0.167000000  0.168110000  0.182390000
     0.334700000  0.002270000  0.121920000
     0.501740000  0.167160000  0.182630000
     0.834210000  0.166390000  0.182830000
     0.169640000  0.498680000  0.182090000
     0.502190000  0.500810000  0.183170000
     0.667410000  0.333950000  0.122330000
     0.831340000  0.502530000  0.182830000
     0.001320000  0.667950000  0.122530000
     0.168980000  0.835090000  0.182430000
     0.334460000  0.667030000  0.122230000
     0.499710000  0.835380000  0.182780000
     0.666980000  0.668400000  0.122590000
     0.834880000  0.834030000  0.182940000
     0.335580000  0.998630000  0.243530000
     0.668010000  0.332620000  0.242290000
     0.004480000  0.667390000  0.242170000
     0.495375948  0.835046442  0.303983465
     0.665210000  0.673510000  0.243270000
     0.666200000  0.996800000  0.000000000
     0.664242981  0.993830878  0.361619185
     0.332130000  0.333860000  0.001350000
     0.336401122  0.335130579  0.362648446
     0.670400000  0.336730000  0.003210000
     0.664943040  0.330852295  0.366443801
     0.667280000  0.999980000  0.122460000
     0.998060000  0.334950000  0.122350000
     0.336750000  0.332380000  0.122610000
     0.499362762  0.146527957  0.446915206

  ion indices of the primitive-cell ions
   primitive index   ion index
                 1           1
                 2           2
                 3           3
                 4           4
                 5           5
                 6           6
                 7           7
                 8           8
                 9           9
                10          10
                11          11
                12          12
                13          13
                14          14
                15          15
                16          16
                17          17
                18          18
                19          19
                20          20
                21          21
                22          22
                23          23
                24          24
                25          25
                26          26
                27          27
                28          28
                29          29
                30          30
                31          31
                32          32
                33          33
                34          34
                35          35
                36          36
                37          37
                38          38
                39          39
                40          40
                41          41
                42          42
                43          43
                44          44
                45          45
                46          46
                47          47
                48          48
                49          49
                50          50
                51          51
                52          52
                53          53
                54          54
                55          55
                56          56
                57          57
                58          58
                59          59
                60          60
                61          61
                62          62
                63          63

----------------------------------------------------------------------------------------

 
 
 KPOINTS: K-Spacing Value to Generate K-Mesh: 0.03

Automatic generation of k-mesh.
 Grid dimensions read from file:
 generate k-points for:    4    4    1

 Generating k-lattice:

  Cartesian coordinates                     Fractional coordinates (reciprocal lattice)
     0.029299051  0.000001791  0.000000000     0.250000000  0.000000000  0.000000000
     0.000000000  0.029422150  0.000000000     0.000000000  0.250000000  0.000000000
     0.000000000  0.000000000  0.042381862     0.000000000  0.000000000  1.000000000

  Length of vectors
     0.029299051  0.029422150  0.042381862

  Shift w.r.t. Gamma in fractional coordinates (k-lattice)
     0.000000000  0.000000000  0.000000000

 
 Subroutine IBZKPT returns following result:
 ===========================================
 
 Found     10 irreducible k-points:
 
 Following reciprocal coordinates:
            Coordinates               Weight
  0.000000  0.000000  0.000000      1.000000
  0.250000  0.000000  0.000000      2.000000
  0.500000  0.000000  0.000000      1.000000
  0.000000  0.250000  0.000000      2.000000
  0.250000  0.250000  0.000000      2.000000
  0.500000  0.250000  0.000000      2.000000
 -0.250000  0.250000  0.000000      2.000000
  0.000000  0.500000  0.000000      1.000000
  0.250000  0.500000  0.000000      2.000000
  0.500000  0.500000  0.000000      1.000000
 
 Following cartesian coordinates:
            Coordinates               Weight
  0.000000  0.000000  0.000000      1.000000
  0.029299  0.000002  0.000000      2.000000
  0.058598  0.000004  0.000000      1.000000
  0.000000  0.029422  0.000000      2.000000
  0.029299  0.029424  0.000000      2.000000
  0.058598  0.029426  0.000000      2.000000
 -0.029299  0.029420  0.000000      2.000000
  0.000000  0.058844  0.000000      1.000000
  0.029299  0.058846  0.000000      2.000000
  0.058598  0.058848  0.000000      1.000000
 


--------------------------------------------------------------------------------------------------------




 Dimension of arrays:
   k-points           NKPTS =     10   k-points in BZ     NKDIM =     10   number of bands    NBANDS=    371
   number of dos      NEDOS =    301   number of ions     NIONS =     63
   non local maximal  LDIM  =      6   non local SUM 2l+1 LMDIM =     18
   total plane-waves  NPLWV = 604800
   max r-space proj   IRMAX =   5137   max aug-charges    IRDMAX=  18968
   dimension x,y,z NGX =    60 NGY =   60 NGZ =  168
   dimension x,y,z NGXF=   120 NGYF=  120 NGZF=  336
   support grid    NGXF=   120 NGYF=  120 NGZF=  336
   ions per type =              48  14   1
   NGX,Y,Z   is equivalent  to a cutoff of  11.69, 11.74, 11.84 a.u.
   NGXF,Y,Z  is equivalent  to a cutoff of  23.38, 23.48, 23.67 a.u.

 SYSTEM =  Fe2O3                                   
 POSCAR =  Generated by VASPKIT code               

 Startparameter for this run:
   NWRITE =      2    write-flag & timer
   PREC   = accura    normal or accurate (medium, high low for compatibility)
   ISTART =      1    job   : 0-new  1-cont  2-samecut
   ICHARG =     11    charge: 1-file 2-atom 10-const
   ISPIN  =      2    spin polarized calculation?
   LNONCOLLINEAR =      F non collinear calculations
   LSORBIT =      F    spin-orbit coupling
   INIWAV =      1    electr: 0-lowe 1-rand  2-diag
   LASPH  =      F    aspherical Exc in radial PAW
 Electronic Relaxation 1
   ENCUT  =  450.0 eV  33.07 Ry    5.75 a.u.  14.76 14.70 40.81*2*pi/ulx,y,z
   ENINI  =  450.0     initial cutoff
   ENAUG  =  519.4 eV  augmentation charge cutoff
   NELM   =    100;   NELMIN=  5; NELMDL=  0     # of ELM steps 
   EDIFF  = 0.1E-05   stopping-criterion for ELM
   LREAL  =      T    real-space projection
   NLSPLINE    = F    spline interpolate recip. space projectors
   LCOMPAT=      F    compatible to vasp.4.4
   GGA_COMPAT  = T    GGA compatible to vasp.4.4-vasp.4.6
   LMAXPAW     = -100 max onsite density
   LMAXMIX     =    2 max onsite mixed and CHGCAR
   VOSKOWN=      0    Vosko Wilk Nusair interpolation
   ROPT   =   -0.00025  -0.00025  -0.00025
 Ionic relaxation
   EDIFFG = -.5E-01   stopping-criterion for IOM
   NSW    =      0    number of steps for IOM
   NBLOCK =      1;   KBLOCK =      1    inner block; outer block 
   IBRION =     -1    ionic relax: 0-MD 1-quasi-New 2-CG
   NFREE  =      1    steps in history (QN), initial steepest desc. (CG)
   ISIF   =      2    stress and relaxation
   IWAVPR =     10    prediction:  0-non 1-charg 2-wave 3-comb
   ISYM   =      2    0-nonsym 1-usesym 2-fastsym
   LCORR  =      T    Harris-Foulkes like correction to forces

   POTIM  = 0.0100    time-step for ionic-motion
   TEIN   =    0.0    initial temperature
   TEBEG  =    0.0;   TEEND  =   0.0 temperature during run
   SMASS  =  -3.00    Nose mass-parameter (am)
   estimated Nose-frequenzy (Omega)   =  0.10E-29 period in steps = 0.63E+48 mass=  -0.166E-26a.u.
   SCALEE = 1.0000    scale energy and forces
   NPACO  =    256;   APACO  = 10.0  distance and # of slots for P.C.
   PSTRESS=    0.0 pullay stress

  Mass of Ions in am
   POMASS =  55.85 52.00207.20
  Ionic Valenz
   ZVAL   =   8.00 12.00 14.00
  Atomic Wigner-Seitz radii
   RWIGS  =  -1.00 -1.00 -1.00
  virtual crystal weights 
   VCA    =   1.00  1.00  1.00
   NELECT =     566.0000    total number of electrons
   NUPDOWN=      -1.0000    fix difference up-down

 DOS related values:
   EMIN   =  10.00;   EMAX   =-10.00  energy-range for DOS
   EFERMI =   0.00
   ISMEAR =     1;   SIGMA  =   0.10  broadening in eV -4-tet -1-fermi 0-gaus

 Electronic relaxation 2 (details)
   IALGO  =     38    algorithm
   LDIAG  =      T    sub-space diagonalisation (order eigenvalues)
   LSUBROT=      F    optimize rotation matrix (better conditioning)
   TURBO    =      0    0=normal 1=particle mesh
   IRESTART =      0    0=no restart 2=restart with 2 vectors
   NREBOOT  =      0    no. of reboots
   NMIN     =      0    reboot dimension
   EREF     =   0.00    reference energy to select bands
   IMIX   =      4    mixing-type and parameters
     AMIX     =   0.05;   BMIX     =  0.00
     AMIX_MAG =   0.20;   BMIX_MAG =  0.00
     AMIN     =   0.05
     WC   =   100.;   INIMIX=   1;  MIXPRE=   1;  MAXMIX= -45

 Intra band minimization:
   WEIMIN = 0.0000     energy-eigenvalue tresh-hold
   EBREAK =  0.67E-09  absolut break condition
   DEPER  =   0.30     relativ break condition  

   TIME   =   0.40     timestep for ELM

  volume/ion in A,a.u.               =      27.15       183.24
  Fermi-wavevector in a.u.,A,eV,Ry     =   1.132286  2.139711 17.443656  1.282073
  Thomas-Fermi vector in A             =   2.268987
 
 Write flags
   LWAVE        =      T    write WAVECAR
   LDOWNSAMPLE  =      F    k-point downsampling of WAVECAR
   LCHARG       =      T    write CHGCAR
   LVTOT        =      F    write LOCPOT, total local potential
   LVHAR        =      F    write LOCPOT, Hartree potential only
   LELF         =      F    write electronic localiz. function (ELF)
   LORBIT       =     11    0 simple, 1 ext, 2 COOP (PROOUT), +10 PAW based schemes


 Dipole corrections
   LMONO  =      F    monopole corrections only (constant potential shift)
   LDIPOL =      T    correct potential (dipole corrections)
   IDIPOL =      3    1-x, 2-y, 3-z, 4-all directions 
   EPSILON=  1.0000000 bulk dielectric constant

 Exchange correlation treatment:
   GGA     =    PE    GGA type
   LEXCH   =     8    internal setting for exchange type
   LIBXC   =     F    Libxc                    
   VOSKOWN =     0    Vosko Wilk Nusair interpolation
   LHFCALC =     F    Hartree Fock is set to
   LHFONE  =     F    Hartree Fock one center treatment
   AEXX    =    0.0000 exact exchange contribution

 Linear response parameters
   LEPSILON=     F    determine dielectric tensor
   LRPA    =     F    only Hartree local field effects (RPA)
   LNABLA  =     F    use nabla operator in PAW spheres
   LVEL    =     F    velocity operator in full k-point grid
   CSHIFT  =0.1000    complex shift for real part using Kramers Kronig
   OMEGAMAX=  -1.0    maximum frequency
   DEG_THRESHOLD= 0.2000000E-02 threshold for treating states as degnerate
   RTIME   =   -0.100 relaxation time in fs
  (WPLASMAI=    0.000 imaginary part of plasma frequency in eV, 0.658/RTIME)
   DFIELD  = 0.0000000 0.0000000 0.0000000 field for delta impulse in time
 
  Optional k-point grid parameters
   LKPOINTS_OPT  =     F    use optional k-point grid
   KPOINTS_OPT_MODE=     1    mode for optional k-point grid
 
 Orbital magnetization related:
   ORBITALMAG=     F  switch on orbital magnetization
   LCHIMAG   =     F  perturbation theory with respect to B field
   DQ        =  0.001000  dq finite difference perturbation B field
   LLRAUG    =     F  two centre corrections for induced B field



--------------------------------------------------------------------------------------------------------


 Static calculation
 charge density and potential remain constant during run
 spin polarized calculation
 Variant of blocked Davidson
 Davidson routine will perform the subspace rotation
 perform sub-space diagonalisation
    after iterative eigenvector-optimisation
 no mixing
 using additional bands           88
 real space projection scheme for non local part
 use partial core corrections
 calculate Harris-corrections to forces 
   (improved forces if not selfconsistent)
 use gradient corrections 
 WARNING: stress and forces are not correct
  (second derivative of E(xc) not defined)
 use of overlap-Matrix (Vanderbilt PP)
 Methfessel and Paxton  Order N= 1 SIGMA  =   0.10


--------------------------------------------------------------------------------------------------------


  energy-cutoff  :      450.00
  volume of cell :     1710.69
      direct lattice vectors                 reciprocal lattice vectors
     8.532699585  0.000000000  0.000000000     0.117196204  0.000007163  0.000000000
    -0.000519333  8.496999725  0.000000000     0.000000000  0.117688600  0.000000000
     0.000000000  0.000000000 23.594999313     0.000000000  0.000000000  0.042381862

  length of vectors
     8.532699585  8.496999741 23.594999313     0.117196204  0.117688600  0.042381862


 
 old parameters found on file WAVECAR:
  energy-cutoff  :      450.00
  volume of cell :     1710.69
      direct lattice vectors                 reciprocal lattice vectors
     8.532699585  0.000000000  0.000000000     0.117196204  0.000007163  0.000000000
    -0.000519333  8.496999725  0.000000000     0.000000000  0.117688600  0.000000000
     0.000000000  0.000000000 23.594999313     0.000000000  0.000000000  0.042381862

  length of vectors

 
 k-points in units of 2pi/SCALE and weight: K-Spacing Value to Generate K-Mesh: 0.03
   0.00000000  0.00000000  0.00000000       0.062
   0.02929905  0.00000179  0.00000000       0.125
   0.05859810  0.00000358  0.00000000       0.062
   0.00000000  0.02942215  0.00000000       0.125
   0.02929905  0.02942394  0.00000000       0.125
   0.05859810  0.02942573  0.00000000       0.125
  -0.02929905  0.02942036  0.00000000       0.125
   0.00000000  0.05884430  0.00000000       0.062
   0.02929905  0.05884609  0.00000000       0.125
   0.05859810  0.05884788  0.00000000       0.062
 
 k-points in reciprocal lattice and weights: K-Spacing Value to Generate K-Mesh: 0.03
   0.00000000  0.00000000  0.00000000       0.062
   0.25000000  0.00000000  0.00000000       0.125
   0.50000000  0.00000000  0.00000000       0.062
   0.00000000  0.25000000  0.00000000       0.125
   0.25000000  0.25000000  0.00000000       0.125
   0.50000000  0.25000000  0.00000000       0.125
  -0.25000000  0.25000000  0.00000000       0.125
   0.00000000  0.50000000  0.00000000       0.062
   0.25000000  0.50000000  0.00000000       0.125
   0.50000000  0.50000000  0.00000000       0.062
 
 position of ions in fractional coordinates (direct lattice) 
   0.00086000  0.99993000  0.24271000
   0.16563197  0.16689272  0.30267213
   0.49945875  0.16083156  0.30209605
   0.66822000  0.00107000  0.24272000
   0.83567803  0.16761142  0.30158044
   0.00044000  0.33497000  0.24240000
   0.16908596  0.50432933  0.30359207
   0.33469000  0.33305000  0.24267000
   0.49805898  0.50477233  0.30286473
   0.83356719  0.50066360  0.30142484
   0.16842387  0.83125233  0.30398063
   0.33342000  0.66555000  0.24261000
   0.83608298  0.83258393  0.30181335
   0.00064000  0.00119000  0.00199000
   0.00160129  0.00355220  0.36072032
   0.16843000  0.16962000  0.06269000
   0.33460000  0.00297000  0.00254000
   0.32931288  0.00423711  0.36192236
   0.50463000  0.16850000  0.06120000
   0.83272000  0.16670000  0.06193000
   0.00004000  0.33467000  0.00213000
   0.00341893  0.33559974  0.35955122
   0.16757000  0.49895000  0.06268000
   0.50099000  0.49896000  0.06206000
   0.83393000  0.50234000  0.06235000
   0.00121000  0.66785000  0.00188000
   0.99436039  0.66453337  0.36064469
   0.16792000  0.83462000  0.06228000
   0.33437000  0.66664000  0.00225000
   0.50152000  0.83563000  0.06217000
   0.66753000  0.66705000  0.00175000
   0.66820935  0.66599714  0.35878875
   0.83293000  0.83584000  0.06235000
   0.00121000  0.00098000  0.12225000
   0.16700000  0.16811000  0.18239000
   0.33470000  0.00227000  0.12192000
   0.50174000  0.16716000  0.18263000
   0.83421000  0.16639000  0.18283000
   0.16964000  0.49868000  0.18209000
   0.50219000  0.50081000  0.18317000
   0.66741000  0.33395000  0.12233000
   0.83134000  0.50253000  0.18283000
   0.00132000  0.66795000  0.12253000
   0.16898000  0.83509000  0.18243000
   0.33446000  0.66703000  0.12223000
   0.49971000  0.83538000  0.18278000
   0.66698000  0.66840000  0.12259000
   0.83488000  0.83403000  0.18294000
   0.33558000  0.99863000  0.24353000
   0.66801000  0.33262000  0.24229000
   0.00448000  0.66739000  0.24217000
   0.49537595  0.83504644  0.30398347
   0.66521000  0.67351000  0.24327000
   0.66620000  0.99680000  0.00000000
   0.66424298  0.99383088  0.36161919
   0.33213000  0.33386000  0.00135000
   0.33640112  0.33513058  0.36264845
   0.67040000  0.33673000  0.00321000
   0.66494304  0.33085229  0.36644380
   0.66728000  0.99998000  0.12246000
   0.99806000  0.33495000  0.12235000
   0.33675000  0.33238000  0.12261000
   0.49936276  0.14652796  0.44691521
 
 position of ions in cartesian coordinates  (Angst):
   0.00681883  8.49640493  5.72674228
   1.41320120  1.41808738  7.14154868
   4.26164797  1.36658573  7.12795602
   5.70171996  0.00909179  5.72697823
   7.13050255  1.42419422  7.11579034
   0.00358043  2.84624000  5.71942783
   1.44249781  4.28528614  7.16325480
   2.85563626  2.82992576  5.72579848
   4.24952550  4.28905032  7.14609319
   7.11231843  4.25413847  7.11211889
   1.43667855  7.06315079  7.17242279
   2.84462705  5.65517817  5.72438278
   7.13361248  7.07446541  7.12128585
   0.00546031  0.01011143  0.04695405
   0.01366145  0.03018306  8.51119572
   1.43707450  1.44126109  1.47917051
   2.85503974  0.02523609  0.05993130
   2.80992564  0.03600276  8.53955782
   4.30576868  1.43174445  1.44401396
   7.10526303  1.41644985  1.46123831
   0.00016750  2.84369090  0.05025735
   0.02899841  2.85159090  8.48361072
   1.42956535  4.23957801  1.47893456
   4.27453804  4.23966298  1.46430566
   7.11541328  4.26838284  1.47114821
   0.00997773  5.67472127  0.04435860
   8.48423340  5.64653988  8.50941112
   1.43237747  7.09176591  1.46949656
   2.85273255  5.66443990  0.05308875
   4.27888553  7.10034788  1.46690111
   5.69548653  5.66792367  0.04129125
   5.70128374  5.65897754  8.46562025
   7.10670739  7.10213225  1.47114821
   0.01032406  0.00832706  2.88448867
   1.42487353  1.42843062  4.30349192
   2.85589337  0.01928819  2.87670232
   4.28110988  1.42035847  4.30915472
   7.11797691  1.41381578  4.31387372
   1.44722818  4.23728382  4.29641342
   4.28477632  4.25538243  4.32189602
   5.69463560  2.83757306  2.88637627
   7.09331349  4.26999727  4.31387372
   0.01091628  5.67557097  2.89109527
   1.44142189  7.09575950  4.30443572
   2.85350029  5.66775373  2.88401677
   4.26344147  7.09822363  4.31269397
   5.69079285  5.67939462  2.89251097
   7.12334709  7.08675268  4.31646917
   2.86288471  8.48535884  5.74609018
   5.69975591  2.82627205  5.71683238
   0.03787990  5.67081265  5.71400098
   4.22646048  7.09538938  7.17248966
   5.67568732  5.72281428  5.73995548
   5.68396679  8.46980933  0.00000000
   5.66726968  8.44458070  8.53240443
   2.83379213  2.83680833  0.03185325
   2.87023567  2.84760444  8.55668983
   5.72014693  2.86119472  0.07573995
   5.67358738  2.81125186  8.64624123
   5.69318046  8.49682978  2.88944362
   8.51597220  2.84607006  2.88684817
   2.87321397  2.82423277  2.89298287
   4.26083633  1.24504801 10.54496398
 


--------------------------------------------------------------------------------------------------------


 k-point   1 :   0.0000 0.0000 0.0000  plane waves:   37053
 k-point   2 :   0.2500 0.0000 0.0000  plane waves:   37082
 k-point   3 :   0.5000 0.0000 0.0000  plane waves:   37122
 k-point   4 :   0.0000 0.2500 0.0000  plane waves:   37091
 k-point   5 :   0.2500 0.2500 0.0000  plane waves:   37070
 k-point   6 :   0.5000 0.2500 0.0000  plane waves:   37050
 k-point   7 :  -0.2500 0.2500 0.0000  plane waves:   37068
 k-point   8 :   0.0000 0.5000 0.0000  plane waves:   37118
 k-point   9 :   0.2500 0.5000 0.0000  plane waves:   37056
 k-point  10 :   0.5000 0.5000 0.0000  plane waves:   37124

 maximum and minimum number of plane-waves per node :     37124    37050

 maximum number of plane-waves:     37124
 maximum index in each direction: 
   IXMAX=   15   IYMAX=   14   IZMAX=   40
   IXMIN=  -15   IYMIN=  -15   IZMIN=  -40


 serial   3D FFT for wavefunctions
 parallel 3D FFT for charge:
    minimum data exchange during FFTs selected (reduces bandwidth)


 total amount of memory used by VASP MPI-rank0  2084907. kBytes
=======================================================================

   base      :      30000. kBytes
   nonlr-proj:      48464. kBytes
   fftplans  :     165536. kBytes
   grid      :     476352. kBytes
   one-center:       1959. kBytes
   wavefun   :    1362596. kBytes
 
     INWAV:  cpu time     22.2937: real time     11.7191
 initial charge density was supplied:
 number of electron     566.0000220 magnetization     109.6274993
 keeping initial charge density in first step


--------------------------------------------------------------------------------------------------------


 Maximum index for non-local projection operator         4950
 Maximum index for augmentation-charges        18221 (set IRDMAX)


--------------------------------------------------------------------------------------------------------


 First call to EWALD:  gamma=   0.148
 Maximum number of real-space cells 4x 4x 2
 Maximum number of reciprocal cells 2x 2x 5

    FEWALD:  cpu time      0.0125: real time      0.0063


--------------------------------------- Iteration      1(   1)  ---------------------------------------


    POTLOK:  cpu time     19.3243: real time      5.2352
    SETDIJ:  cpu time      2.7431: real time      0.5077
     EDDAV:  cpu time    149.6593: real time     22.2093
       DOS:  cpu time      0.1052: real time      0.0161
    --------------------------------------------
      LOOP:  cpu time    171.8325: real time     27.9685

 eigenvalue-minimisations  : 19696
 total energy-change (2. order) :-0.5037310E+03  (-0.2946487E-01)
 number of electron     566.0000220 magnetization     109.6274993
 augmentation part      566.0000220 magnetization     109.6274993

 DIPCOR: dipole corrections for dipol
 direction  3 min pos   236,
 dipolmoment           0.000000      0.000000      0.122770 electrons x Angstroem
 Tr[quadrupol]     -7163.700410

 energy correction for charged system         0.000000 eV
 dipol+quadrupol energy correction           -0.000797 eV
 added-field ion interaction          2.044217 eV  (added to PSCEN)


 Free energy of the ion-electron system (eV)
  ---------------------------------------------------
  alpha Z        PSCENC =      1816.34197442
  Ewald energy   TEWEN  =    207083.85421532
  -Hartree energ DENC   =   -258148.67588974
  -exchange      EXHF   =         0.00000000
  -V(xc)+E(xc)   XCENC  =       997.64777552
  PAW double counting   =     55327.20779562   -56448.88081688
  entropy T*S    EENTRO =         0.00166805
  eigenvalues    EBANDS =     -4390.49965415
  atomic energy  EATOM  =     53259.27193834
  Solvation  Ediel_sol  =         0.00000000
  ---------------------------------------------------
  free energy    TOTEN  =      -503.73099350 eV

  energy without entropy =     -503.73266155  energy(sigma->0) =     -503.73154951


--------------------------------------------------------------------------------------------------------




--------------------------------------- Iteration      1(   2)  ---------------------------------------


     EDDAV:  cpu time    150.7392: real time     21.6771
       DOS:  cpu time      0.0511: real time      0.0073
    --------------------------------------------
      LOOP:  cpu time    150.7899: real time     21.6844

 eigenvalue-minimisations  : 20008
 total energy-change (2. order) :-0.3428207E-02  (-0.3428187E-02)
 number of electron     566.0000220 magnetization     109.6274993
 augmentation part      566.0000220 magnetization     109.6274993

 DIPCOR: dipole corrections for dipol
 direction  3 min pos   236,
 dipolmoment           0.000000      0.000000      0.122770 electrons x Angstroem
 Tr[quadrupol]     -7163.700410

 energy correction for charged system         0.000000 eV
 dipol+quadrupol energy correction           -0.000797 eV
 added-field ion interaction          2.044217 eV  (added to PSCEN)


 Free energy of the ion-electron system (eV)
  ---------------------------------------------------
  alpha Z        PSCENC =      1816.34197442
  Ewald energy   TEWEN  =    207083.85421532
  -Hartree energ DENC   =   -258148.67588974
  -exchange      EXHF   =         0.00000000
  -V(xc)+E(xc)   XCENC  =       997.64777552
  PAW double counting   =     55327.20779562   -56448.88081688
  entropy T*S    EENTRO =         0.00166714
  eigenvalues    EBANDS =     -4390.50308145
  atomic energy  EATOM  =     53259.27193834
  Solvation  Ediel_sol  =         0.00000000
  ---------------------------------------------------
  free energy    TOTEN  =      -503.73442170 eV

  energy without entropy =     -503.73608884  energy(sigma->0) =     -503.73497742


--------------------------------------------------------------------------------------------------------




--------------------------------------- Iteration      1(   3)  ---------------------------------------


     EDDAV:  cpu time    173.2252: real time     25.0000
       DOS:  cpu time      0.0221: real time      0.0141
    --------------------------------------------
      LOOP:  cpu time    173.2471: real time     25.0141

 eigenvalue-minimisations  : 24024
 total energy-change (2. order) :-0.2172953E-03  (-0.2172925E-03)
 number of electron     566.0000220 magnetization     109.6274993
 augmentation part      566.0000220 magnetization     109.6274993

 DIPCOR: dipole corrections for dipol
 direction  3 min pos   236,
 dipolmoment           0.000000      0.000000      0.122770 electrons x Angstroem
 Tr[quadrupol]     -7163.700410

 energy correction for charged system         0.000000 eV
 dipol+quadrupol energy correction           -0.000797 eV
 added-field ion interaction          2.044217 eV  (added to PSCEN)


 Free energy of the ion-electron system (eV)
  ---------------------------------------------------
  alpha Z        PSCENC =      1816.34197442
  Ewald energy   TEWEN  =    207083.85421532
  -Hartree energ DENC   =   -258148.67588974
  -exchange      EXHF   =         0.00000000
  -V(xc)+E(xc)   XCENC  =       997.64777552
  PAW double counting   =     55327.20779562   -56448.88081688
  entropy T*S    EENTRO =         0.00166720
  eigenvalues    EBANDS =     -4390.50329880
  atomic energy  EATOM  =     53259.27193834
  Solvation  Ediel_sol  =         0.00000000
  ---------------------------------------------------
  free energy    TOTEN  =      -503.73463900 eV

  energy without entropy =     -503.73630620  energy(sigma->0) =     -503.73519473


--------------------------------------------------------------------------------------------------------




--------------------------------------- Iteration      1(   4)  ---------------------------------------


     EDDAV:  cpu time    144.8562: real time     21.9128
       DOS:  cpu time      0.0512: real time      0.0073
    --------------------------------------------
      LOOP:  cpu time    144.9076: real time     21.9202

 eigenvalue-minimisations  : 20600
 total energy-change (2. order) :-0.6055430E-05  (-0.6055387E-05)
 number of electron     566.0000220 magnetization     109.6274993
 augmentation part      566.0000220 magnetization     109.6274993

 DIPCOR: dipole corrections for dipol
 direction  3 min pos   236,
 dipolmoment           0.000000      0.000000      0.122770 electrons x Angstroem
 Tr[quadrupol]     -7163.700410

 energy correction for charged system         0.000000 eV
 dipol+quadrupol energy correction           -0.000797 eV
 added-field ion interaction          2.044217 eV  (added to PSCEN)


 Free energy of the ion-electron system (eV)
  ---------------------------------------------------
  alpha Z        PSCENC =      1816.34197442
  Ewald energy   TEWEN  =    207083.85421532
  -Hartree energ DENC   =   -258148.67588974
  -exchange      EXHF   =         0.00000000
  -V(xc)+E(xc)   XCENC  =       997.64777552
  PAW double counting   =     55327.20779562   -56448.88081688
  entropy T*S    EENTRO =         0.00166723
  eigenvalues    EBANDS =     -4390.50330489
  atomic energy  EATOM  =     53259.27193834
  Solvation  Ediel_sol  =         0.00000000
  ---------------------------------------------------
  free energy    TOTEN  =      -503.73464505 eV

  energy without entropy =     -503.73631229  energy(sigma->0) =     -503.73520080


--------------------------------------------------------------------------------------------------------




--------------------------------------- Iteration      1(   5)  ---------------------------------------


     EDDAV:  cpu time     74.5350: real time     15.4048
       DOS:  cpu time      0.0155: real time      0.0077
    --------------------------------------------
      LOOP:  cpu time     74.5503: real time     15.4125

 eigenvalue-minimisations  : 12720
 total energy-change (2. order) :-0.4793692E-06  (-0.4792745E-06)
 number of electron     566.0000220 magnetization     109.6274993
 augmentation part      566.0000220 magnetization     109.6274993

 DIPCOR: dipole corrections for dipol
 direction  3 min pos   236,
 dipolmoment           0.000000      0.000000      0.122770 electrons x Angstroem
 Tr[quadrupol]     -7163.700410

 energy correction for charged system         0.000000 eV
 dipol+quadrupol energy correction           -0.000797 eV
 added-field ion interaction          2.044217 eV  (added to PSCEN)


 Free energy of the ion-electron system (eV)
  ---------------------------------------------------
  alpha Z        PSCENC =      1816.34197442
  Ewald energy   TEWEN  =    207083.85421532
  -Hartree energ DENC   =   -258148.67588974
  -exchange      EXHF   =         0.00000000
  -V(xc)+E(xc)   XCENC  =       997.64777552
  PAW double counting   =     55327.20779562   -56448.88081688
  entropy T*S    EENTRO =         0.00166725
  eigenvalues    EBANDS =     -4390.50330538
  atomic energy  EATOM  =     53259.27193834
  Solvation  Ediel_sol  =         0.00000000
  ---------------------------------------------------
  free energy    TOTEN  =      -503.73464553 eV

  energy without entropy =     -503.73631278  energy(sigma->0) =     -503.73520128


--------------------------------------------------------------------------------------------------------




 average (electrostatic) potential at core
  the test charge radii are     1.0103  1.0025  1.1541
  (the norm of the test charge is              1.0000)
       1 -48.4398       2 -48.4043       3 -48.5242       4 -48.5087       5 -48.3573
       6 -48.4867       7 -48.4508       8 -48.5090       9 -48.4660      10 -48.4710
      11 -48.3950      12 -48.4264      13 -48.5137      14 -48.6171      15 -48.5953
      16 -48.4021      17 -48.6552      18 -48.3977      19 -48.3394      20 -48.3770
      21 -48.6564      22 -48.5234      23 -48.3817      24 -48.3055      25 -48.3566
      26 -48.5703      27 -48.5500      28 -48.2328      29 -48.6197      30 -48.3119
      31 -48.6450      32 -48.5337      33 -48.3279      34 -48.4586      35 -48.5319
      36 -48.4820      37 -48.5952      38 -48.5751      39 -48.5561      40 -48.5604
      41 -48.5137      42 -48.6132      43 -48.4692      44 -48.4349      45 -48.4525
      46 -48.5438      47 -48.4846      48 -48.5511      49 -76.0796      50 -76.2173
      51 -76.2491      52 -75.7365      53 -76.1000      54 -74.9526      55 -75.6997
      56 -75.0166      57 -75.4785      58 -75.2565      59 -75.0732      60 -76.2253
      61 -76.2148      62 -76.2140      63 -95.9061
 
 
 
 E-fermi :   0.9515     XC(G=0):  -6.6468     alpha+bet : -6.4271

 Fermi energy:         0.9514851962

 spin component 1

 k-point     1 :       0.0000    0.0000    0.0000
  band No.  band energies     occupation 
      1     -42.8531      1.00000
      2     -42.8403      1.00000
      3     -42.8231      1.00000
      4     -42.8117      1.00000
      5     -42.7997      1.00000
      6     -42.7841      1.00000
      7     -42.7785      1.00000
      8     -42.7632      1.00000
      9     -42.7605      1.00000
     10     -42.7376      1.00000
     11     -42.7353      1.00000
     12     -42.7299      1.00000
     13     -42.2722      1.00000
     14     -42.2141      1.00000
     15     -42.1435      1.00000
     16     -42.0890      1.00000
     17     -42.0576      1.00000
     18     -42.0462      1.00000
     19     -42.0161      1.00000
     20     -42.0065      1.00000
     21     -42.0036      1.00000
     22     -41.8666      1.00000
     23     -41.8652      1.00000
     24     -41.8466      1.00000
     25     -41.8412      1.00000
     26     -41.8400      1.00000
     27     -41.8346      1.00000
     28     -41.8204      1.00000
     29     -41.8195      1.00000
     30     -41.8169      1.00000
     31     -41.8154      1.00000
     32     -41.8109      1.00000
     33     -41.7976      1.00000
     34     -41.7928      1.00000
     35     -41.7887      1.00000
     36     -41.7881      1.00000
     37     -41.7811      1.00000
     38     -41.7723      1.00000
     39     -41.7617      1.00000
     40     -40.3169      1.00000
     41     -40.2913      1.00000
     42     -40.1811      1.00000
     43     -15.3946      1.00000
     44     -15.3792      1.00000
     45     -15.3501      1.00000
     46     -15.3460      1.00000
     47     -15.3116      1.00000
     48      -7.4156      1.00000
     49      -7.1714      1.00000
     50      -6.2064      1.00000
     51      -5.2919      1.00000
     52      -5.2503      1.00000
     53      -5.2293      1.00000
     54      -5.2022      1.00000
     55      -4.9062      1.00000
     56      -4.6384      1.00000
     57      -4.6010      1.00000
     58      -4.5714      1.00000
     59      -4.5593      1.00000
     60      -4.1514      1.00000
     61      -4.1326      1.00000
     62      -4.1189      1.00000
     63      -4.1061      1.00000
     64      -4.0735      1.00000
     65      -4.0495      1.00000
     66      -4.0399      1.00000
     67      -3.9886      1.00000
     68      -3.8352      1.00000
     69      -3.8126      1.00000
     70      -3.7339      1.00000
     71      -3.6581      1.00000
     72      -3.6163      1.00000
     73      -3.6094      1.00000
     74      -3.5628      1.00000
     75      -3.4656      1.00000
     76      -3.4313      1.00000
     77      -3.4221      1.00000
     78      -3.4143      1.00000
     79      -3.3981      1.00000
     80      -3.3857      1.00000
     81      -3.3659      1.00000
     82      -3.3481      1.00000
     83      -3.3155      1.00000
     84      -3.3035      1.00000
     85      -3.2862      1.00000
     86      -3.2792      1.00000
     87      -3.2574      1.00000
     88      -3.2556      1.00000
     89      -3.2343      1.00000
     90      -3.2180      1.00000
     91      -3.1924      1.00000
     92      -3.1572      1.00000
     93      -3.1441      1.00000
     94      -3.1043      1.00000
     95      -3.0672      1.00000
     96      -2.9990      1.00000
     97      -2.9947      1.00000
     98      -2.9629      1.00000
     99      -2.9588      1.00000
    100      -2.9493      1.00000
    101      -2.9406      1.00000
    102      -2.9221      1.00000
    103      -2.9091      1.00000
    104      -2.8913      1.00000
    105      -2.8805      1.00000
    106      -2.8712      1.00000
    107      -2.8407      1.00000
    108      -2.8219      1.00000
    109      -2.8048      1.00000
    110      -2.7485      1.00000
    111      -2.6958      1.00000
    112      -2.6824      1.00000
    113      -2.6500      1.00000
    114      -2.6383      1.00000
    115      -2.6229      1.00000
    116      -2.6172      1.00000
    117      -2.5986      1.00000
    118      -2.5863      1.00000
    119      -2.5730      1.00000
    120      -2.5667      1.00000
    121      -2.5508      1.00000
    122      -2.5438      1.00000
    123      -2.5275      1.00000
    124      -2.5175      1.00000
    125      -2.5069      1.00000
    126      -2.4989      1.00000
    127      -2.4962      1.00000
    128      -2.4735      1.00000
    129      -2.4628      1.00000
    130      -2.4544      1.00000
    131      -2.4425      1.00000
    132      -2.4411      1.00000
    133      -2.4228      1.00000
    134      -2.4022      1.00000
    135      -2.3934      1.00000
    136      -2.3834      1.00000
    137      -2.3698      1.00000
    138      -2.3590      1.00000
    139      -2.3588      1.00000
    140      -2.3418      1.00000
    141      -2.3339      1.00000
    142      -2.3241      1.00000
    143      -2.3136      1.00000
    144      -2.2958      1.00000
    145      -2.2734      1.00000
    146      -2.2649      1.00000
    147      -2.2500      1.00000
    148      -2.2409      1.00000
    149      -2.2263      1.00000
    150      -2.2245      1.00000
    151      -2.2148      1.00000
    152      -2.1944      1.00000
    153      -2.1833      1.00000
    154      -2.1546      1.00000
    155      -2.1396      1.00000
    156      -2.1265      1.00000
    157      -2.1135      1.00000
    158      -2.1108      1.00000
    159      -2.1049      1.00000
    160      -2.0914      1.00000
    161      -2.0668      1.00000
    162      -2.0561      1.00000
    163      -2.0360      1.00000
    164      -2.0260      1.00000
    165      -2.0092      1.00000
    166      -1.9893      1.00000
    167      -1.9771      1.00000
    168      -1.9636      1.00000
    169      -1.9455      1.00000
    170      -1.9398      1.00000
    171      -1.9297      1.00000
    172      -1.8972      1.00000
    173      -1.8821      1.00000
    174      -1.8723      1.00000
    175      -1.8630      1.00000
    176      -1.8558      1.00000
    177      -1.8345      1.00000
    178      -1.8298      1.00000
    179      -1.8202      1.00000
    180      -1.7921      1.00000
    181      -1.7866      1.00000
    182      -1.7602      1.00000
    183      -1.7484      1.00000
    184      -1.7374      1.00000
    185      -1.7213      1.00000
    186      -1.7005      1.00000
    187      -1.6790      1.00000
    188      -1.6592      1.00000
    189      -1.6325      1.00000
    190      -1.6270      1.00000
    191      -1.6142      1.00000
    192      -1.5921      1.00000
    193      -1.5709      1.00000
    194      -1.5475      1.00000
    195      -1.5301      1.00000
    196      -1.5203      1.00000
    197      -1.5163      1.00000
    198      -1.4802      1.00000
    199      -1.4738      1.00000
    200      -1.4598      1.00000
    201      -1.4249      1.00000
    202      -1.4193      1.00000
    203      -1.3818      1.00000
    204      -1.3774      1.00000
    205      -1.3726      1.00000
    206      -1.3608      1.00000
    207      -1.3400      1.00000
    208      -1.3193      1.00000
    209      -1.2911      1.00000
    210      -1.2644      1.00000
    211      -1.2571      1.00000
    212      -1.2504      1.00000
    213      -1.2107      1.00000
    214      -1.1822      1.00000
    215      -1.1658      1.00000
    216      -1.1582      1.00000
    217      -1.1410      1.00000
    218      -1.1036      1.00000
    219      -1.0838      1.00000
    220      -1.0738      1.00000
    221      -1.0640      1.00000
    222      -1.0419      1.00000
    223      -1.0222      1.00000
    224      -1.0013      1.00000
    225      -0.9929      1.00000
    226      -0.9750      1.00000
    227      -0.9517      1.00000
    228      -0.9430      1.00000
    229      -0.9277      1.00000
    230      -0.9229      1.00000
    231      -0.8727      1.00000
    232      -0.8558      1.00000
    233      -0.8342      1.00000
    234      -0.8277      1.00000
    235      -0.7905      1.00000
    236      -0.7872      1.00000
    237      -0.7734      1.00000
    238      -0.7502      1.00000
    239      -0.7367      1.00000
    240      -0.7227      1.00000
    241      -0.7143      1.00000
    242      -0.6925      1.00000
    243      -0.6702      1.00000
    244      -0.6614      1.00000
    245      -0.6416      1.00000
    246      -0.6308      1.00000
    247      -0.6189      1.00000
    248      -0.5939      1.00000
    249      -0.5830      1.00000
    250      -0.5762      1.00000
    251      -0.5684      1.00000
    252      -0.5541      1.00000
    253      -0.5367      1.00000
    254      -0.5174      1.00000
    255      -0.5110      1.00000
    256      -0.4954      1.00000
    257      -0.4772      1.00000
    258      -0.4716      1.00000
    259      -0.4570      1.00000
    260      -0.4495      1.00000
    261      -0.4420      1.00000
    262      -0.4237      1.00000
    263      -0.4120      1.00000
    264      -0.4068      1.00000
    265      -0.3937      1.00000
    266      -0.3901      1.00000
    267      -0.3724      1.00000
    268      -0.3715      1.00000
    269      -0.3538      1.00000
    270      -0.3458      1.00000
    271      -0.3358      1.00000
    272      -0.3241      1.00000
    273      -0.3161      1.00000
    274      -0.3114      1.00000
    275      -0.3025      1.00000
    276      -0.2923      1.00000
    277      -0.2723      1.00000
    278      -0.2657      1.00000
    279      -0.2581      1.00000
    280      -0.2416      1.00000
    281      -0.2347      1.00000
    282      -0.2181      1.00000
    283      -0.2144      1.00000
    284      -0.2087      1.00000
    285      -0.1946      1.00000
    286      -0.1749      1.00000
    287      -0.1574      1.00000
    288      -0.1551      1.00000
    289      -0.1451      1.00000
    290      -0.1271      1.00000
    291      -0.1209      1.00000
[...]
   95        m_sumb_d                              0.000452                           10   3
   96        densta                                0.037189                            5   3
   97          m_sumb_d                              0.000988                        197   4
   98        m_bcast_z                             0.000060                            1   3
   99      rotate_active_occupied_orbital        0.000007                              1   2
  100      sphpro_fast                           6.590672                              2   2
  101        m_sumb_d                              0.018506                            5   3
  102      force_and_stress                     25.008707                              1   2
  103        set_charge                            0.816813                            1   3
  104          soft_charge                           0.516766                          1   4
  105            fftwav_mpi                            0.030104                     2226   5
  106              fftwav                                0.027430                   2226   6
  107                fft3d                                 0.016321                 2226   7
  108            pw_charge                             0.004866                     2226   5
  109            m_sumb_d                              0.460994                        2   5
  110            fft_gq                                0.012287                        1   5
  111              fft3d_mpi                             0.011521                      2   6
  112                fftbrc_mpi                            0.006701                    2   7
  113                  fftbas_plan_mpi                       0.006700                  2   8
  114                    dfftw_execute                         0.003713                6   9
  115                    map_backward                          0.001012                4   9
  116                      map_gather                            0.000681              2  10
  117          depsum                                0.039235                          1   4
  118            m_sumb_d                              0.009826                        1   5
  119          augmentation_charge                   0.248309                          1   4
  120            fft3d_mpi                             0.055054                        2   5
  121              fftbrc_mpi                            0.045154                      2   6
  122                fftbas_plan_mpi                       0.045151                    2   7
  123                  dfftw_execute                         0.028227                  6   8
  124                  map_backward                          0.016705                  4   8
  125                    map_gather                            0.010724                2   9
  126        forloc                                0.182664                            1   3
  127        fornlr                                3.250103                            1   3
  128          rspher_all                            0.175805                          3   4
  129          phaser                                0.140679                          9   4
  130          rpro_isp                              2.865220                          9   4
  131            fftwav_mpi                            0.168386                     6678   5
  132              fftwav                                0.159653                   6678   6
  133                fft3d                                 0.092745                 6678   7
  134            rpromu_acc                            2.685268                     1674   5
  135          m_sumb_d                              0.018046                          1   4
  136        fordep                                1.193722                            1   3
  137          setdij_                               1.193499                          6   4
  138        setdij_                               3.999252                           20   3
  139        set_dd_magatom                        0.000005                            1   3
  140        set_dd_paw                            0.090432                            1   3
  141          m_sumb_d                              0.014584                          7   4
  142        strkin                                0.095447                            1   3
  143          m_sumb_d                              0.003125                          1   4
  144        strelo                                0.018427                            1   3
  145        strnlr                                9.752144                            1   3
  146          rspher_all                            0.517623                          9   4
  147          phaser                                0.434653                         27   4
  148          rpro_isp                              8.596382                         27   4
  149            fftwav_mpi                            0.484557                    20034   5
  150              fftwav                                0.458345                  20034   6
  151                fft3d                                 0.275735                20034   7
  152            rpromu_acc                            8.074927                     5022   5
  153          m_sumb_d                              0.050173                          9   4
  154        fft3d_mpi                             0.611565                           22   3
  155          fftbrc_mpi                            0.504517                         22   4
  156            fftbas_plan_mpi                       0.504487                       22   5
  157              dfftw_execute                         0.321214                     66   6
  158              map_forward                           0.082436                     20   6
  159                map_scatter                           0.045207                   10   7
  160              map_backward                          0.098624                     24   6
  161                map_gather                            0.063112                   12   7
  162        forhar                                0.362441                            2   3
  163        strehar                               0.010684                            1   3
  164        chggra                                0.140843                            1   3
  165          fft3d_mpi                             0.133277                          3   4
  166            fftbrc_mpi                            0.130561                        3   5
  167              fftbas_plan_mpi                       0.130557                      3   6
  168                map_forward                           0.000064                    4   7
  169                  map_scatter                           0.000010                  2   8
  170                map_backward                          0.000014                    2   7
  171                  map_gather                            0.000003                  1   8
  172          pothar                                0.000964                          1   4
  173        m_bcast_d                             0.034499                            2   3
  174      potlok                                5.295648                              1   2
  175        fft3d_mpi                             0.741793                           26   3
  176          fftbrc_mpi                            0.619249                         26   4
  177            fftbas_plan_mpi                       0.619214                       26   5
  178              dfftw_execute                         0.384306                     78   6
  179              map_forward                           0.116169                     28   6
  180                map_scatter                           0.053909                   14   7
  181              map_backward                          0.098637                     24   6
  182                map_gather                            0.063212                   12   7
  183        fewald                                0.000094                            2   3
  184          rsp                                   0.000061                          2   4
  185          rcp                                   0.000028                          2   4
  186        pothar                                0.029533                            1   3
  187      potlok_metagga                        0.000000                              1   2
  188      set_dd_magatom                        0.000005                              1   2
  189      set_dd_paw                            0.152652                              1   2
  190        m_sumb_d                              0.076796                            7   3
  191      densta                                0.056273                              1   2
  192        m_sumb_d                              0.010653                           42   3
  193      m_sumb_d                              0.001313                              1   2
 
 Flat profile
 ============
 
             routine name                   CPU           calls
 ---------------------------------------------------------------
 total_time                             87.091729           1
 eddav                                  72.970043           5
 rpromu_acc                             18.056185       10955
 potlok                                  9.054058           2
 hamiltmu                                6.642625        5111
 sphpro_fast                             6.572166           2
 lapack                                  5.929226        5111
 setdij_                                 5.898968          29
 force_and_stress                        4.449666           1
 racc0mu_acc                             3.947170        5111
 orth1                                   3.777513       15339
 fft3d                                   2.549456      140448
 m_bcast_z                               2.264139        7431
 newband                                 2.121057        5141
 fftbas_plan_mpi                         1.955091          88
 raccmu_                                 1.671469        5111
 dfftw_execute                           1.447983         255
 phaser                                  1.100402          69
 w1_copy                                 1.054741      120414
 fftwav                                  1.003588      100310
 m_sumb_d                                0.848015         305
 choleski                                0.797462           6
 init_hip                                0.759484           1
 rspher_all                              0.759108          14
 lincom                                  0.534722          36
 overl                                   0.483627       69152
 overl_mu                                0.434264        5111
 fft3d_mpi                               0.428097       40226
 elmin                                   0.424016           1
 stufak                                  0.366774           2
 forhar                                  0.362441           2
 ggemm                                   0.280579        6521
 set_dd_paw                              0.278365           3
 orthch                                  0.259437           1
 eccp                                    0.240147       11130
 proall                                  0.237609           1
 map_gather                              0.214926          43
 apply_precond                           0.200233       29008
 augmentation_charge                     0.193255           1
 forloc                                  0.182664           1
 map_scatter                             0.177963          45
 kinhamil                                0.166108       40138
 map_forward                             0.163069          90
 fftext_mpi                              0.159938       40138
 strnlr                                  0.153314           1
 fftwav_mpi                              0.145287      100310
 vhamil                                  0.128725       40138
 map_backward                            0.118987          86
 strkin                                  0.092322           1
 setup_precond                           0.082621       11130
 densta                                  0.081822           6
 pothar                                  0.060152           3
 rpro_isp                                0.051647          39
 fornlr                                  0.050353           1
 m_bcast_d                               0.034789           9
 depsum                                  0.029409           1
 strelo                                  0.018427           1
 set_charge                              0.012503           1
 inisym                                  0.011946           1
 strehar                                 0.010684           1
 soft_charge                             0.008515           1
 truncate_high_frequency_w1              0.007168       51268
 chggra                                  0.006602           1
 pw_charge                               0.004866        2226
 rsp                                     0.004312           5
 w1_projall                              0.003755        3701
 hip_hipfft_makeplan                     0.002529           6
 fewald                                  0.001538           5
 fft_gq                                  0.000766           1
 rcp                                     0.000383           5
 fordep                                  0.000223           1
 hip_init_hipblas                        0.000204           1
 fftbrc_mpi                              0.000113          88
 hip_init_rocsolver                      0.000070           1
 crpa_reader                             0.000069           1
 set_dd_magatom                          0.000019           3
 posmap                                  0.000017           2
 vectorpot                               0.000016           2
 rotate_active_occupied_orbital          0.000007           1
 potlok_metagga                          0.000004           2
 hip_hipfft_makeplans                    0.000003           3
 redis_pw_over_bands                     0.000001           1
 ---------------------------------------------------------------
  summed up times    249.633744001389     
 
 Accumulative profile
 ====================
 
             routine name                   CPU           calls
 ---------------------------------------------------------------
 total_time                            249.633744           1
 elmin                                 112.394418           1
 eddav                                 106.195268           5
 force_and_stress                       25.008707           1
 rpromu_acc                             18.056185       10955
 hamiltmu                               13.642586        5111
 rpro_isp                               13.458066          39
 potlok                                 10.525714           2
 strnlr                                  9.752144           1
 sphpro_fast                             6.590672           2
 w1_projall                              6.288841        3701
 raccmu_                                 6.052903        5111
 lapack                                  5.929226        5111
 setdij_                                 5.898968          29
 fft3d_mpi                               4.977494       40226
 orthch                                  4.514790           1
 fftbrc_mpi                              4.078132          88
 fftbas_plan_mpi                         4.078020          88
 racc0mu_acc                             3.947170        5111
 orth1                                   3.777513       15339
 fornlr                                  3.250103           1
 fftwav_mpi                              3.227066      100310
 fftwav                                  3.081779      100310
 newband                                 2.993109        5141
 fft3d                                   2.549456      140448
 proall                                  2.281463           1
 m_bcast_z                               2.264139        7431
 dfftw_execute                           1.447983         255
 fordep                                  1.193722           1
 phaser                                  1.100402          69
 w1_copy                                 1.054741      120414
 m_sumb_d                                0.848015         305
 kinhamil                                0.818333       40138
 set_charge                              0.816813           1
 choleski                                0.797462           6
 init_hip                                0.759484           1
 rspher_all                              0.759108          14
 fftext_mpi                              0.652225       40138
 set_dd_paw                              0.551964           3
 lincom                                  0.534722          36
 soft_charge                             0.516766           1
 overl                                   0.483627       69152
 overl_mu                                0.434264        5111
 stufak                                  0.366774           2
 forhar                                  0.362441           2
 map_forward                             0.341032          90
 map_backward                            0.333913          86
 ggemm                                   0.280579        6521
 augmentation_charge                     0.248309           1
 eccp                                    0.240147       11130
 map_gather                              0.214926          43
 apply_precond                           0.200233       29008
 forloc                                  0.182664           1
 map_scatter                             0.177963          45
 chggra                                  0.140843           1
 vhamil                                  0.128725       40138
 strkin                                  0.095447           1
 densta                                  0.093462           6
 setup_precond                           0.082621       11130
 pothar                                  0.060152           3
 depsum                                  0.039235           1
 m_bcast_d                               0.034789           9
 strelo                                  0.018427           1
 fft_gq                                  0.012287           1
 inisym                                  0.011963           1
 strehar                                 0.010684           1
 truncate_high_frequency_w1              0.007168       51268
 fewald                                  0.006397           5
 pw_charge                               0.004866        2226
 rsp                                     0.004312           5
 hip_hipfft_makeplans                    0.002532           3
 hip_hipfft_makeplan                     0.002529           6
 rcp                                     0.000383           5
 hip_init_hipblas                        0.000204           1
 hip_init_rocsolver                      0.000070           1
 crpa_reader                             0.000069           1
 set_dd_magatom                          0.000019           3
 posmap                                  0.000017           2
 vectorpot                               0.000016           2
 rotate_active_occupied_orbital          0.000007           1
 potlok_metagga                          0.000004           2
 redis_pw_over_bands                     0.000001           1
 ---------------------------------------------------------------
 
Profiling took   0.173838  0.097744  0.003006  0.002762 seconds
Profiling took   0.114906 seconds
