Fe2O3                                   
           1
     8.532700    0.000000    0.000000
    -0.000519    8.497000    0.000000
     0.000000    0.000000   23.594999
   Fe   Cr   Pb
    48    14     1
Direct configuration=     1
   0.00086000  0.99993000  0.24271000
   0.16563197  0.16689272  0.30267213
   0.49945875  0.16083156  0.30209605
   0.66822000  0.00107000  0.24272000
   0.83567803  0.16761142  0.30158044
   0.00044000  0.33497000  0.24240000
   0.16908596  0.50432933  0.30359207
   0.33469000  0.33305000  0.24267000
   0.49805898  0.50477233  0.30286473
   0.83356719  0.50066360  0.30142484
   0.16842387  0.83125233  0.30398063
   0.33342000  0.66555000  0.24261000
   0.83608298  0.83258393  0.30181335
   0.00064000  0.00119000  0.00199000
   0.00160129  0.00355220  0.36072032
   0.16843000  0.16962000  0.06269000
   0.33460000  0.00297000  0.00254000
   0.32931288  0.00423711  0.36192236
   0.50463000  0.16850000  0.06120000
   0.83272000  0.16670000  0.06193000
   0.00004000  0.33467000  0.00213000
   0.00341893  0.33559974  0.35955122
   0.16757000  0.49895000  0.06268000
   0.50099000  0.49896000  0.06206000
   0.83393000  0.50234000  0.06235000
   0.00121000  0.66785000  0.00188000
   0.99436039  0.66453337  0.36064469
   0.16792000  0.83462000  0.06228000
   0.33437000  0.66664000  0.00225000
   0.50152000  0.83563000  0.06217000
   0.66753000  0.66705000  0.00175000
   0.66820935  0.66599714  0.35878875
   0.83293000  0.83584000  0.06235000
   0.00121000  0.00098000  0.12225000
   0.16700000  0.16811000  0.18239000
   0.33470000  0.00227000  0.12192000
   0.50174000  0.16716000  0.18263000
   0.83421000  0.16639000  0.18283000
   0.16964000  0.49868000  0.18209000
   0.50219000  0.50081000  0.18317000
   0.66741000  0.33395000  0.12233000
   0.83134000  0.50253000  0.18283000
   0.00132000  0.66795000  0.12253000
   0.16898000  0.83509000  0.18243000
   0.33446000  0.66703000  0.12223000
   0.49971000  0.83538000  0.18278000
   0.66698000  0.66840000  0.12259000
   0.83488000  0.83403000  0.18294000
   0.33558000  0.99863000  0.24353000
   0.66801000  0.33262000  0.24229000
   0.00448000  0.66739000  0.24217000
   0.49537595  0.83504644  0.30398347
   0.66521000  0.67351000  0.24327000
   0.66620000  0.99680000  0.00000000
   0.66424298  0.99383088  0.36161919
   0.33213000  0.33386000  0.00135000
   0.33640112  0.33513058  0.36264845
   0.67040000  0.33673000  0.00321000
   0.66494304  0.33085229  0.36644380
   0.66728000  0.99998000  0.12246000
   0.99806000  0.33495000  0.12235000
   0.33675000  0.33238000  0.12261000
   0.49936276  0.14652796  0.44691521
