  63  63   0   0
  0.2715385E+02  0.8532700E-09  0.8497000E-09  0.2359500E-08  0.5000000E-15
  1.000000000000000E-004
  CAR 
 ni3al                                   
      5.43643196    -45.69494532  301      0.98123130      1.00000000
    -45.695  0.0000E+00  0.0000E+00  0.0000E+00  0.0000E+00
    -45.525  0.0000E+00  0.0000E+00  0.0000E+00  0.0000E+00
    -45.354  0.0000E+00  0.0000E+00  0.0000E+00  0.0000E+00
    -45.184  0.0000E+00  0.0000E+00  0.0000E+00  0.0000E+00
    -45.013  0.0000E+00  0.0000E+00  0.0000E+00  0.0000E+00
    -44.843  0.0000E+00  0.0000E+00  0.0000E+00  0.0000E+00
    -44.672  0.0000E+00 -0.9633E-34  0.0000E+00 -0.1642E-34
    -44.502  0.0000E+00 -0.8456E-26  0.0000E+00 -0.1441E-26
    -44.331  0.0000E+00 -0.5516E-19  0.0000E+00 -0.9401E-20
    -44.161 -0.1712E-36 -0.2578E-13 -0.2917E-37 -0.4395E-14
    -43.991 -0.4109E-28 -0.9137E-09 -0.7003E-29 -0.1557E-09
    -43.820 -0.6487E-21 -0.2412E-05 -0.1106E-21 -0.4113E-06
    -43.650 -0.7491E-15 -0.4667E-03 -0.1277E-15 -0.7996E-04
    -43.479 -0.6624E-10 -0.3633E-02 -0.1129E-10 -0.6991E-03
    -43.309 -0.4327E-06  0.5911E-01 -0.7376E-07  0.9375E-02
    -43.138 -0.1984E-03  0.1998E+00 -0.3389E-04  0.4344E-01
    -42.968 -0.4269E-02  0.1486E+00 -0.7615E-03  0.6876E-01
    -42.798  0.4738E-01  0.8163E-01  0.7313E-02  0.8267E-01
    -42.627  0.1251E+00  0.4236E-01  0.2863E-01  0.8989E-01
    -42.457  0.8985E-02  0.1284E-02  0.3016E-01  0.9011E-01
    -42.286  0.1758E-01 -0.6219E-03  0.3316E-01  0.9000E-01
    -42.116  0.3390E-01 -0.6933E-05  0.3893E-01  0.9000E-01
    -41.945  0.3004E-01 -0.3244E-04  0.4405E-01  0.8999E-01
    -41.775  0.2203E+00 -0.8932E-03  0.8160E-01  0.8984E-01
    -41.604  0.1707E+00  0.7722E-02  0.1107E+00  0.9116E-01
    -41.434 -0.2372E-02  0.3728E-01  0.1103E+00  0.9751E-01
    -41.264 -0.1699E-02  0.1588E-01  0.1100E+00  0.1002E+00
    -41.093 -0.1138E-04 -0.1200E-02  0.1100E+00  0.1000E+00
    -40.923 -0.9478E-08 -0.8588E-04  0.1100E+00  0.1000E+00
    -40.752 -0.6776E-05 -0.2164E-03  0.1100E+00  0.9996E-01
    -40.582 -0.6286E-03 -0.6329E-03  0.1099E+00  0.9986E-01
    -40.411  0.1365E-02  0.2547E-01  0.1101E+00  0.1042E+00
    -40.241  0.4607E-01  0.1546E-01  0.1180E+00  0.1068E+00
    -40.070  0.6009E-01  0.1612E-01  0.1282E+00  0.1096E+00
    -39.900  0.1163E-01  0.4249E-01  0.1302E+00  0.1168E+00
    -39.730 -0.1088E-02  0.4494E-01  0.1300E+00  0.1245E+00
    -39.559 -0.8015E-04  0.3019E-01  0.1300E+00  0.1296E+00
    -39.389 -0.2433E-06  0.2784E-02  0.1300E+00  0.1301E+00
    -39.218 -0.4705E-10 -0.5694E-03  0.1300E+00  0.1300E+00
    -39.048 -0.6297E-15 -0.9447E-05  0.1300E+00  0.1300E+00
    -38.877  0.0000E+00 -0.8570E-08  0.1300E+00  0.1300E+00
    -38.707  0.0000E+00 -0.5216E-12  0.1300E+00  0.1300E+00
    -38.537  0.0000E+00 -0.4343E-17  0.1300E+00  0.1300E+00
    -38.366  0.0000E+00  0.0000E+00  0.1300E+00  0.1300E+00
    -38.196  0.0000E+00  0.0000E+00  0.1300E+00  0.1300E+00
    -38.025  0.0000E+00  0.0000E+00  0.1300E+00  0.1300E+00
    -37.855  0.0000E+00  0.0000E+00  0.1300E+00  0.1300E+00
    -37.684  0.0000E+00  0.0000E+00  0.1300E+00  0.1300E+00
    -37.514  0.0000E+00  0.0000E+00  0.1300E+00  0.1300E+00
    -37.343  0.0000E+00  0.0000E+00  0.1300E+00  0.1300E+00
    -37.173  0.0000E+00  0.0000E+00  0.1300E+00  0.1300E+00
    -37.003  0.0000E+00  0.0000E+00  0.1300E+00  0.1300E+00
    -36.832  0.0000E+00  0.0000E+00  0.1300E+00  0.1300E+00
    -36.662  0.0000E+00  0.0000E+00  0.1300E+00  0.1300E+00
    -36.491  0.0000E+00  0.0000E+00  0.1300E+00  0.1300E+00
    -36.321  0.0000E+00  0.0000E+00  0.1300E+00  0.1300E+00
    -36.150  0.0000E+00  0.0000E+00  0.1300E+00  0.1300E+00
    -35.980  0.0000E+00  0.0000E+00  0.1300E+00  0.1300E+00
    -35.810  0.0000E+00  0.0000E+00  0.1300E+00  0.1300E+00
    -35.639  0.0000E+00  0.0000E+00  0.1300E+00  0.1300E+00
    -35.469  0.0000E+00  0.0000E+00  0.1300E+00  0.1300E+00
    -35.298  0.0000E+00  0.0000E+00  0.1300E+00  0.1300E+00
    -35.128  0.0000E+00  0.0000E+00  0.1300E+00  0.1300E+00
    -34.957  0.0000E+00  0.0000E+00  0.1300E+00  0.1300E+00
    -34.787  0.0000E+00  0.0000E+00  0.1300E+00  0.1300E+00
    -34.616  0.0000E+00  0.0000E+00  0.1300E+00  0.1300E+00
    -34.446  0.0000E+00  0.0000E+00  0.1300E+00  0.1300E+00
    -34.276  0.0000E+00  0.0000E+00  0.1300E+00  0.1300E+00
    -34.105  0.0000E+00  0.0000E+00  0.1300E+00  0.1300E+00
    -33.935  0.0000E+00  0.0000E+00  0.1300E+00  0.1300E+00
    -33.764  0.0000E+00  0.0000E+00  0.1300E+00  0.1300E+00
    -33.594  0.0000E+00  0.0000E+00  0.1300E+00  0.1300E+00
    -33.423  0.0000E+00  0.0000E+00  0.1300E+00  0.1300E+00
    -33.253  0.0000E+00  0.0000E+00  0.1300E+00  0.1300E+00
    -33.083  0.0000E+00  0.0000E+00  0.1300E+00  0.1300E+00
    -32.912  0.0000E+00  0.0000E+00  0.1300E+00  0.1300E+00
    -32.742  0.0000E+00  0.0000E+00  0.1300E+00  0.1300E+00
    -32.571  0.0000E+00  0.0000E+00  0.1300E+00  0.1300E+00
    -32.401  0.0000E+00  0.0000E+00  0.1300E+00  0.1300E+00
    -32.230  0.0000E+00  0.0000E+00  0.1300E+00  0.1300E+00
    -32.060  0.0000E+00  0.0000E+00  0.1300E+00  0.1300E+00
    -31.889  0.0000E+00  0.0000E+00  0.1300E+00  0.1300E+00
    -31.719  0.0000E+00  0.0000E+00  0.1300E+00  0.1300E+00
    -31.549  0.0000E+00  0.0000E+00  0.1300E+00  0.1300E+00
    -31.378  0.0000E+00  0.0000E+00  0.1300E+00  0.1300E+00
    -31.208  0.0000E+00  0.0000E+00  0.1300E+00  0.1300E+00
    -31.037  0.0000E+00  0.0000E+00  0.1300E+00  0.1300E+00
    -30.867  0.0000E+00  0.0000E+00  0.1300E+00  0.1300E+00
    -30.696  0.0000E+00  0.0000E+00  0.1300E+00  0.1300E+00
    -30.526  0.0000E+00  0.0000E+00  0.1300E+00  0.1300E+00
    -30.356  0.0000E+00  0.0000E+00  0.1300E+00  0.1300E+00
    -30.185  0.0000E+00  0.0000E+00  0.1300E+00  0.1300E+00
    -30.015  0.0000E+00  0.0000E+00  0.1300E+00  0.1300E+00
    -29.844  0.0000E+00  0.0000E+00  0.1300E+00  0.1300E+00
    -29.674  0.0000E+00  0.0000E+00  0.1300E+00  0.1300E+00
    -29.503  0.0000E+00  0.0000E+00  0.1300E+00  0.1300E+00
    -29.333  0.0000E+00  0.0000E+00  0.1300E+00  0.1300E+00
    -29.162  0.0000E+00  0.0000E+00  0.1300E+00  0.1300E+00
    -28.992  0.0000E+00  0.0000E+00  0.1300E+00  0.1300E+00
    -28.822  0.0000E+00  0.0000E+00  0.1300E+00  0.1300E+00
    -28.651  0.0000E+00  0.0000E+00  0.1300E+00  0.1300E+00
    -28.481  0.0000E+00  0.0000E+00  0.1300E+00  0.1300E+00
    -28.310  0.0000E+00  0.0000E+00  0.1300E+00  0.1300E+00
    -28.140  0.0000E+00  0.0000E+00  0.1300E+00  0.1300E+00
    -27.969  0.0000E+00  0.0000E+00  0.1300E+00  0.1300E+00
    -27.799  0.0000E+00  0.0000E+00  0.1300E+00  0.1300E+00
    -27.629  0.0000E+00  0.0000E+00  0.1300E+00  0.1300E+00
    -27.458  0.0000E+00  0.0000E+00  0.1300E+00  0.1300E+00
    -27.288  0.0000E+00  0.0000E+00  0.1300E+00  0.1300E+00
    -27.117  0.0000E+00  0.0000E+00  0.1300E+00  0.1300E+00
    -26.947  0.0000E+00  0.0000E+00  0.1300E+00  0.1300E+00
    -26.776  0.0000E+00  0.0000E+00  0.1300E+00  0.1300E+00
    -26.606  0.0000E+00  0.0000E+00  0.1300E+00  0.1300E+00
    -26.435  0.0000E+00  0.0000E+00  0.1300E+00  0.1300E+00
    -26.265  0.0000E+00  0.0000E+00  0.1300E+00  0.1300E+00
    -26.095  0.0000E+00  0.0000E+00  0.1300E+00  0.1300E+00
    -25.924  0.0000E+00  0.0000E+00  0.1300E+00  0.1300E+00
    -25.754  0.0000E+00  0.0000E+00  0.1300E+00  0.1300E+00
    -25.583  0.0000E+00  0.0000E+00  0.1300E+00  0.1300E+00
    -25.413  0.0000E+00  0.0000E+00  0.1300E+00  0.1300E+00
    -25.242  0.0000E+00  0.0000E+00  0.1300E+00  0.1300E+00
    -25.072  0.0000E+00  0.0000E+00  0.1300E+00  0.1300E+00
    -24.902  0.0000E+00  0.0000E+00  0.1300E+00  0.1300E+00
    -24.731  0.0000E+00  0.0000E+00  0.1300E+00  0.1300E+00
    -24.561  0.0000E+00  0.0000E+00  0.1300E+00  0.1300E+00
    -24.390  0.0000E+00  0.0000E+00  0.1300E+00  0.1300E+00
    -24.220  0.0000E+00  0.0000E+00  0.1300E+00  0.1300E+00
    -24.049  0.0000E+00  0.0000E+00  0.1300E+00  0.1300E+00
    -23.879  0.0000E+00  0.0000E+00  0.1300E+00  0.1300E+00
    -23.708  0.0000E+00  0.0000E+00  0.1300E+00  0.1300E+00
    -23.538  0.0000E+00  0.0000E+00  0.1300E+00  0.1300E+00
    -23.368  0.0000E+00  0.0000E+00  0.1300E+00  0.1300E+00
    -23.197  0.0000E+00  0.0000E+00  0.1300E+00  0.1300E+00
    -23.027  0.0000E+00  0.0000E+00  0.1300E+00  0.1300E+00
    -22.856  0.0000E+00  0.0000E+00  0.1300E+00  0.1300E+00
    -22.686  0.0000E+00  0.0000E+00  0.1300E+00  0.1300E+00
    -22.515  0.0000E+00  0.0000E+00  0.1300E+00  0.1300E+00
    -22.345  0.0000E+00  0.0000E+00  0.1300E+00  0.1300E+00
    -22.175  0.0000E+00  0.0000E+00  0.1300E+00  0.1300E+00
    -22.004  0.0000E+00  0.0000E+00  0.1300E+00  0.1300E+00
    -21.834  0.0000E+00  0.0000E+00  0.1300E+00  0.1300E+00
    -21.663  0.0000E+00  0.0000E+00  0.1300E+00  0.1300E+00
    -21.493  0.0000E+00  0.0000E+00  0.1300E+00  0.1300E+00
    -21.322  0.0000E+00  0.0000E+00  0.1300E+00  0.1300E+00
    -21.152  0.0000E+00  0.0000E+00  0.1300E+00  0.1300E+00
    -20.981  0.0000E+00  0.0000E+00  0.1300E+00  0.1300E+00
    -20.811  0.0000E+00  0.0000E+00  0.1300E+00  0.1300E+00
    -20.641  0.0000E+00  0.0000E+00  0.1300E+00  0.1300E+00
    -20.470  0.0000E+00  0.0000E+00  0.1300E+00  0.1300E+00
    -20.300  0.0000E+00  0.0000E+00  0.1300E+00  0.1300E+00
    -20.129  0.0000E+00  0.0000E+00  0.1300E+00  0.1300E+00
    -19.959  0.0000E+00  0.0000E+00  0.1300E+00  0.1300E+00
    -19.788  0.0000E+00  0.0000E+00  0.1300E+00  0.1300E+00
    -19.618  0.0000E+00  0.0000E+00  0.1300E+00  0.1300E+00
    -19.448  0.0000E+00  0.0000E+00  0.1300E+00  0.1300E+00
    -19.277  0.0000E+00  0.0000E+00  0.1300E+00  0.1300E+00
    -19.107  0.0000E+00  0.0000E+00  0.1300E+00  0.1300E+00
    -18.936  0.0000E+00  0.0000E+00  0.1300E+00  0.1300E+00
    -18.766  0.0000E+00  0.0000E+00  0.1300E+00  0.1300E+00
    -18.595  0.0000E+00  0.0000E+00  0.1300E+00  0.1300E+00
    -18.425  0.0000E+00  0.0000E+00  0.1300E+00  0.1300E+00
    -18.254  0.0000E+00  0.0000E+00  0.1300E+00  0.1300E+00
    -18.084  0.0000E+00  0.0000E+00  0.1300E+00  0.1300E+00
    -17.914  0.0000E+00  0.0000E+00  0.1300E+00  0.1300E+00
    -17.743  0.0000E+00  0.0000E+00  0.1300E+00  0.1300E+00
    -17.573  0.0000E+00  0.0000E+00  0.1300E+00  0.1300E+00
    -17.402  0.0000E+00  0.0000E+00  0.1300E+00  0.1300E+00
    -17.232  0.0000E+00  0.0000E+00  0.1300E+00  0.1300E+00
    -17.061  0.0000E+00  0.0000E+00  0.1300E+00  0.1300E+00
    -16.891 -0.9748E-37 -0.5595E-36  0.1300E+00  0.1300E+00
    -16.720 -0.3549E-28 -0.1048E-27  0.1300E+00  0.1300E+00
    -16.550 -0.6143E-21 -0.1463E-20  0.1300E+00  0.1300E+00
    -16.380 -0.7694E-15 -0.1497E-14  0.1300E+00  0.1300E+00
    -16.209 -0.7220E-10 -0.1170E-09  0.1300E+00  0.1300E+00
    -16.039 -0.4826E-06 -0.6659E-06  0.1300E+00  0.1300E+00
    -15.868 -0.2095E-03 -0.2506E-03  0.1300E+00  0.1300E+00
    -15.698 -0.3105E-02 -0.2995E-02  0.1294E+00  0.1294E+00
    -15.527  0.4396E-01  0.4724E-01  0.1369E+00  0.1375E+00
    -15.357  0.5956E-01  0.5656E-01  0.1471E+00  0.1471E+00
    -15.187 -0.1952E-02 -0.2365E-02  0.1467E+00  0.1467E+00
    -15.016 -0.4620E-03 -0.3963E-03  0.1467E+00  0.1467E+00
    -14.846 -0.1882E-05 -0.1414E-05  0.1467E+00  0.1467E+00
    -14.675 -0.4993E-09 -0.3245E-09  0.1467E+00  0.1467E+00
    -14.505 -0.9688E-14 -0.5359E-14  0.1467E+00  0.1467E+00
    -14.334  0.0000E+00  0.0000E+00  0.1467E+00  0.1467E+00
    -14.164  0.0000E+00  0.0000E+00  0.1467E+00  0.1467E+00
    -13.993  0.0000E+00  0.0000E+00  0.1467E+00  0.1467E+00
    -13.823  0.0000E+00  0.0000E+00  0.1467E+00  0.1467E+00
    -13.653  0.0000E+00  0.0000E+00  0.1467E+00  0.1467E+00
    -13.482  0.0000E+00  0.0000E+00  0.1467E+00  0.1467E+00
    -13.312  0.0000E+00  0.0000E+00  0.1467E+00  0.1467E+00
    -13.141  0.0000E+00  0.0000E+00  0.1467E+00  0.1467E+00
    -12.971  0.0000E+00  0.0000E+00  0.1467E+00  0.1467E+00
    -12.800  0.0000E+00  0.0000E+00  0.1467E+00  0.1467E+00
    -12.630  0.0000E+00  0.0000E+00  0.1467E+00  0.1467E+00
    -12.460  0.0000E+00  0.0000E+00  0.1467E+00  0.1467E+00
    -12.289  0.0000E+00  0.0000E+00  0.1467E+00  0.1467E+00
    -12.119  0.0000E+00  0.0000E+00  0.1467E+00  0.1467E+00
    -11.948  0.0000E+00  0.0000E+00  0.1467E+00  0.1467E+00
    -11.778  0.0000E+00  0.0000E+00  0.1467E+00  0.1467E+00
    -11.607  0.0000E+00  0.0000E+00  0.1467E+00  0.1467E+00
    -11.437  0.0000E+00  0.0000E+00  0.1467E+00  0.1467E+00
    -11.266  0.0000E+00  0.0000E+00  0.1467E+00  0.1467E+00
    -11.096  0.0000E+00  0.0000E+00  0.1467E+00  0.1467E+00
    -10.926  0.0000E+00  0.0000E+00  0.1467E+00  0.1467E+00
    -10.755  0.0000E+00  0.0000E+00  0.1467E+00  0.1467E+00
    -10.585  0.0000E+00  0.0000E+00  0.1467E+00  0.1467E+00
    -10.414  0.0000E+00  0.0000E+00  0.1467E+00  0.1467E+00
    -10.244  0.0000E+00  0.0000E+00  0.1467E+00  0.1467E+00
    -10.073  0.0000E+00  0.0000E+00  0.1467E+00  0.1467E+00
     -9.903  0.0000E+00  0.0000E+00  0.1467E+00  0.1467E+00
     -9.733  0.0000E+00  0.0000E+00  0.1467E+00  0.1467E+00
     -9.562  0.0000E+00  0.0000E+00  0.1467E+00  0.1467E+00
     -9.392  0.0000E+00  0.0000E+00  0.1467E+00  0.1467E+00
     -9.221 -0.2987E-36 -0.6293E-36  0.1467E+00  0.1467E+00
     -9.051 -0.4273E-28 -0.8354E-28  0.1467E+00  0.1467E+00
     -8.880 -0.4657E-21 -0.8504E-21  0.1467E+00  0.1467E+00
     -8.710 -0.3815E-15 -0.6497E-15  0.1467E+00  0.1467E+00
     -8.539 -0.2482E-10 -0.3924E-10  0.1467E+00  0.1467E+00
     -8.369 -0.1242E-06 -0.1797E-06  0.1467E+00  0.1467E+00
     -8.199 -0.4423E-04 -0.5688E-04  0.1467E+00  0.1467E+00
     -8.028 -0.5723E-03 -0.5493E-03  0.1466E+00  0.1466E+00
     -7.858  0.8564E-02  0.9683E-02  0.1480E+00  0.1482E+00
     -7.687  0.1200E-01  0.1101E-01  0.1501E+00  0.1501E+00
     -7.517 -0.2914E-03 -0.4552E-03  0.1500E+00  0.1500E+00
     -7.346 -0.1652E-03 -0.8787E-04  0.1500E+00  0.1500E+00
     -7.176  0.2596E-03 -0.9579E-04  0.1500E+00  0.1500E+00
     -7.006  0.4155E-02  0.1250E-02  0.1507E+00  0.1502E+00
     -6.835  0.5887E-02  0.5791E-02  0.1517E+00  0.1512E+00
     -6.665  0.3300E-02  0.4256E-02  0.1523E+00  0.1519E+00
     -6.494  0.8185E-02  0.4604E-02  0.1537E+00  0.1527E+00
     -6.324  0.3959E-02  0.8427E-02  0.1544E+00  0.1541E+00
     -6.153  0.2936E-02  0.1660E-02  0.1549E+00  0.1544E+00
     -5.983  0.1216E-01  0.4358E-02  0.1570E+00  0.1552E+00
     -5.812  0.1499E-01  0.1334E-01  0.1595E+00  0.1574E+00
     -5.642  0.9224E-02  0.1276E-01  0.1611E+00  0.1596E+00
     -5.472  0.9896E-02  0.8963E-02  0.1628E+00  0.1611E+00
     -5.301  0.8153E-02  0.1046E-01  0.1642E+00  0.1629E+00
     -5.131  0.1565E-01  0.6994E-02  0.1668E+00  0.1641E+00
     -4.960  0.1796E-01  0.1407E-01  0.1699E+00  0.1665E+00
     -4.790  0.1468E-01  0.1771E-01  0.1724E+00  0.1695E+00
     -4.619  0.2014E-01  0.1147E-01  0.1758E+00  0.1715E+00
     -4.449  0.2191E-01  0.1579E-01  0.1795E+00  0.1742E+00
     -4.279  0.2730E-01  0.1496E-01  0.1842E+00  0.1767E+00
     -4.108  0.3844E-01  0.2319E-01  0.1908E+00  0.1807E+00
     -3.938  0.5563E-01  0.2583E-01  0.2002E+00  0.1851E+00
     -3.767  0.8072E-01  0.2505E-01  0.2140E+00  0.1893E+00
     -3.597  0.1182E+00  0.2107E-01  0.2341E+00  0.1929E+00
     -3.426  0.1190E+00  0.2937E-01  0.2544E+00  0.1979E+00
     -3.256  0.1574E+00  0.3978E-01  0.2812E+00  0.2047E+00
     -3.085  0.1873E+00  0.5675E-01  0.3132E+00  0.2144E+00
     -2.915  0.1443E+00  0.6589E-01  0.3378E+00  0.2256E+00
     -2.745  0.1389E+00  0.7828E-01  0.3614E+00  0.2390E+00
     -2.574  0.2072E+00  0.6084E-01  0.3967E+00  0.2493E+00
     -2.404  0.2602E+00  0.8037E-01  0.4411E+00  0.2630E+00
     -2.233  0.2339E+00  0.9897E-01  0.4810E+00  0.2799E+00
     -2.063  0.2236E+00  0.1072E+00  0.5191E+00  0.2982E+00
     -1.892  0.2324E+00  0.1152E+00  0.5587E+00  0.3178E+00
     -1.722  0.2219E+00  0.1095E+00  0.5965E+00  0.3365E+00
     -1.552  0.2348E+00  0.1177E+00  0.6365E+00  0.3565E+00
     -1.381  0.2257E+00  0.1544E+00  0.6750E+00  0.3829E+00
     -1.211  0.1940E+00  0.1781E+00  0.7081E+00  0.4132E+00
     -1.040  0.1558E+00  0.1672E+00  0.7346E+00  0.4417E+00
     -0.870  0.1677E+00  0.1685E+00  0.7632E+00  0.4704E+00
     -0.699  0.1885E+00  0.1786E+00  0.7953E+00  0.5009E+00
     -0.529  0.2442E+00  0.2056E+00  0.8370E+00  0.5359E+00
     -0.358  0.3052E+00  0.2161E+00  0.8890E+00  0.5727E+00
     -0.188  0.3100E+00  0.2152E+00  0.9418E+00  0.6094E+00
     -0.018  0.2406E+00  0.1908E+00  0.9828E+00  0.6419E+00
      0.153  0.1773E+00  0.1479E+00  0.1013E+01  0.6671E+00
      0.323  0.1460E+00  0.1273E+00  0.1038E+01  0.6888E+00
      0.494  0.1328E+00  0.1104E+00  0.1061E+01  0.7076E+00
      0.664  0.1268E+00  0.9630E-01  0.1082E+01  0.7241E+00
      0.835  0.1178E+00  0.9778E-01  0.1102E+01  0.7407E+00
      1.005  0.8938E-01  0.1195E+00  0.1117E+01  0.7611E+00
      1.175  0.9343E-01  0.1590E+00  0.1133E+01  0.7882E+00
      1.346  0.1133E+00  0.1781E+00  0.1153E+01  0.8185E+00
      1.516  0.1190E+00  0.1842E+00  0.1173E+01  0.8499E+00
      1.687  0.1172E+00  0.2254E+00  0.1193E+01  0.8883E+00
      1.857  0.1239E+00  0.2362E+00  0.1214E+01  0.9286E+00
      2.028  0.8757E-01  0.2410E+00  0.1229E+01  0.9697E+00
      2.198  0.7355E-02  0.2879E+00  0.1230E+01  0.1019E+01
      2.369 -0.1529E-02  0.3088E+00  0.1230E+01  0.1071E+01
      2.539 -0.3146E-04  0.3235E+00  0.1230E+01  0.1127E+01
      2.709 -0.4192E-07  0.2748E+00  0.1230E+01  0.1173E+01
      2.880 -0.4203E-11  0.1932E+00  0.1230E+01  0.1206E+01
      3.050 -0.3257E-16  0.1155E+00  0.1230E+01  0.1226E+01
      3.221  0.0000E+00  0.2628E-01  0.1230E+01  0.1230E+01
      3.391  0.0000E+00 -0.2384E-02  0.1230E+01  0.1230E+01
      3.562  0.0000E+00 -0.1785E-03  0.1230E+01  0.1230E+01
      3.732  0.0000E+00 -0.7211E-06  0.1230E+01  0.1230E+01
      3.902  0.0000E+00 -0.2262E-09  0.1230E+01  0.1230E+01
      4.073  0.0000E+00 -0.5479E-14  0.1230E+01  0.1230E+01
      4.243  0.0000E+00  0.0000E+00  0.1230E+01  0.1230E+01
      4.414  0.0000E+00  0.0000E+00  0.1230E+01  0.1230E+01
      4.584  0.0000E+00  0.0000E+00  0.1230E+01  0.1230E+01
      4.755  0.0000E+00  0.0000E+00  0.1230E+01  0.1230E+01
      4.925  0.0000E+00  0.0000E+00  0.1230E+01  0.1230E+01
      5.096  0.0000E+00  0.0000E+00  0.1230E+01  0.1230E+01
      5.266  0.0000E+00  0.0000E+00  0.1230E+01  0.1230E+01
      5.436  0.0000E+00  0.0000E+00  0.1230E+01  0.1230E+01
