   63   63  300    2
  0.2715385E+02  0.8532700E-09  0.8497000E-09  0.2359500E-08  0.5000000E-15
  1.000000000000000E-004
  CAR 
 ni3al                                   
    562     10    369
 
  0.0000000E+00  0.0000000E+00  0.0000000E+00  0.6250000E-01
      1        -42.805529      -43.370777   1.000000   1.000000
      2        -42.787786      -43.311476   1.000000   1.000000
      3        -42.773778      -43.310511   1.000000   1.000000
      4        -42.765867      -43.306917   1.000000   1.000000
      5        -42.740637      -43.277206   1.000000   1.000000
      6        -42.724743      -43.256888   1.000000   1.000000
      7        -42.703664      -43.222882   1.000000   1.000000
      8        -42.701338      -43.213540   1.000000   1.000000
      9        -42.691093      -43.193031   1.000000   1.000000
     10        -42.314082      -43.184161   1.000000   1.000000
     11        -42.236175      -43.163538   1.000000   1.000000
     12        -42.190452      -43.158238   1.000000   1.000000
     13        -41.944265      -43.153789   1.000000   1.000000
     14        -41.917915      -43.145286   1.000000   1.000000
     15        -41.913974      -43.136493   1.000000   1.000000
     16        -41.895203      -43.130094   1.000000   1.000000
     17        -41.854934      -43.100437   1.000000   1.000000
     18        -41.832735      -43.050231   1.000000   1.000000
     19        -41.829216      -43.028297   1.000000   1.000000
     20        -41.822575      -42.988674   1.000000   1.000000
     21        -41.816832      -42.958998   1.000000   1.000000
     22        -41.805388      -42.958137   1.000000   1.000000
     23        -41.788098      -42.882962   1.000000   1.000000
     24        -41.785202      -42.869852   1.000000   1.000000
     25        -41.776532      -42.798924   1.000000   1.000000
     26        -41.770864      -42.759403   1.000000   1.000000
     27        -41.761973      -42.702911   1.000000   1.000000
     28        -41.741790      -41.581168   1.000000   1.000000
     29        -41.725329      -41.485783   1.000000   1.000000
     30        -41.720246      -41.426375   1.000000   1.000000
     31        -41.715624      -40.441816   1.000000   1.000000
     32        -41.710996      -40.429538   1.000000   1.000000
     33        -41.694991      -40.122327   1.000000   1.000000
     34        -40.333229      -40.006341   1.000000   1.000000
     35        -40.291004      -39.909379   1.000000   1.000000
     36        -40.201444      -39.906505   1.000000   1.000000
     37        -40.195144      -39.781950   1.000000   1.000000
     38        -40.182262      -39.720523   1.000000   1.000000
     39        -40.060042      -39.622071   1.000000   1.000000
     40        -15.530878      -15.544447   1.000000   1.000000
     41        -15.520217      -15.522757   1.000000   1.000000
     42        -15.518825      -15.520600   1.000000   1.000000
     43        -15.506873      -15.510029   1.000000   1.000000
     44        -15.483437      -15.494097   1.000000   1.000000
     45         -7.892789       -7.898593   1.000000   1.000000
     46         -7.142933       -7.041716   1.000000   1.000000
     47         -6.120015       -5.958700   1.000000   1.000000
     48         -5.289500       -5.091163   1.000000   1.000000
     49         -5.222506       -5.069662   1.000000   1.000000
     50         -5.216344       -5.056294   1.000000   1.000000
     51         -5.187594       -5.023449   1.000000   1.000000
     52         -4.881103       -4.571461   1.000000   1.000000
     53         -4.646910       -4.331391   1.000000   1.000000
     54         -4.604363       -4.321497   1.000000   1.000000
     55         -4.573268       -4.263059   1.000000   1.000000
     56         -4.481295       -4.118689   1.000000   1.000000
     57         -4.131500       -3.688423   1.000000   1.000000
     58         -4.128878       -3.681983   1.000000   1.000000
     59         -4.105372       -3.651304   1.000000   1.000000
     60         -4.096608       -3.585511   1.000000   1.000000
     61         -4.073791       -3.543452   1.000000   1.000000
     62         -4.049381       -3.524409   1.000000   1.000000
     63         -4.026050       -3.431815   1.000000   1.000000
     64         -3.959782       -3.324297   1.000000   1.000000
     65         -3.864245       -3.177955   1.000000   1.000000
     66         -3.841941       -2.928244   1.000000   1.000000
     67         -3.734452       -2.893271   1.000000   1.000000
     68         -3.659700       -2.858935   1.000000   1.000000
     69         -3.645414       -2.839112   1.000000   1.000000
     70         -3.595716       -2.817675   1.000000   1.000000
     71         -3.541054       -2.800828   1.000000   1.000000
     72         -3.495399       -2.765573   1.000000   1.000000
     73         -3.453700       -2.666036   1.000000   1.000000
     74         -3.425110       -2.641851   1.000000   1.000000
     75         -3.406572       -2.548505   1.000000   1.000000
     76         -3.398040       -2.410531   1.000000   1.000000
     77         -3.375581       -2.377590   1.000000   1.000000
     78         -3.364887       -2.363391   1.000000   1.000000
     79         -3.357531       -2.350807   1.000000   1.000000
     80         -3.339503       -2.326637   1.000000   1.000000
     81         -3.325041       -2.281724   1.000000   1.000000
     82         -3.301475       -2.243131   1.000000   1.000000
     83         -3.284416       -2.239936   1.000000   1.000000
     84         -3.268086       -2.195282   1.000000   1.000000
     85         -3.258212       -2.176491   1.000000   1.000000
     86         -3.231008       -2.122334   1.000000   1.000000
     87         -3.228993       -2.108208   1.000000   1.000000
     88         -3.227448       -2.098401   1.000000   1.000000
     89         -3.206407       -2.071571   1.000000   1.000000
     90         -3.158134       -2.045639   1.000000   1.000000
     91         -3.145532       -2.037903   1.000000   1.000000
     92         -3.130637       -1.980760   1.000000   1.000000
     93         -3.031930       -1.940478   1.000000   1.000000
     94         -2.977804       -1.894911   1.000000   1.000000
     95         -2.969598       -1.836733   1.000000   1.000000
     96         -2.952186       -1.817754   1.000000   1.000000
     97         -2.939308       -1.802844   1.000000   1.000000
     98         -2.920372       -1.778996   1.000000   1.000000
     99         -2.914888       -1.768560   1.000000   1.000000
    100         -2.890391       -1.732523   1.000000   1.000000
    101         -2.884413       -1.697917   1.000000   1.000000
    102         -2.858085       -1.662504   1.000000   1.000000
    103         -2.825085       -1.626530   1.000000   1.000000
    104         -2.820432       -1.597829   1.000000   1.000000
    105         -2.817891       -1.583917   1.000000   1.000000
    106         -2.781684       -1.546334   1.000000   1.000000
    107         -2.721375       -1.535052   1.000000   1.000000
    108         -2.709471       -1.521351   1.000000   1.000000
    109         -2.671643       -1.503656   1.000000   1.000000
    110         -2.634102       -1.483644   1.000000   1.000000
    111         -2.601887       -1.460385   1.000000   1.000000
    112         -2.591061       -1.445405   1.000000   1.000000
    113         -2.574208       -1.433011   1.000000   1.000000
    114         -2.550267       -1.414763   1.000000   1.000000
    115         -2.544669       -1.380513   1.000000   1.000000
    116         -2.541541       -1.364891   1.000000   1.000000
    117         -2.539156       -1.339994   1.000000   1.000000
    118         -2.526453       -1.327801   1.000000   1.000000
    119         -2.523837       -1.300152   1.000000   1.000000
    120         -2.511743       -1.266443   1.000000   1.000000
    121         -2.495240       -1.257461   1.000000   1.000000
    122         -2.487439       -1.228527   1.000000   1.000000
    123         -2.476301       -1.220258   1.000000   1.000000
    124         -2.469997       -1.201397   1.000000   1.000000
    125         -2.465649       -1.198551   1.000000   1.000000
    126         -2.448953       -1.171432   1.000000   1.000000
    127         -2.442801       -1.155558   1.000000   1.000000
    128         -2.433873       -1.137494   1.000000   1.000000
    129         -2.426252       -1.111087   1.000000   1.000000
    130         -2.403051       -1.094083   1.000000   1.000000
    131         -2.399336       -1.083624   1.000000   1.000000
    132         -2.382351       -1.071272   1.000000   1.000000
    133         -2.369807       -1.027755   1.000000   1.000000
    134         -2.362362       -1.006530   1.000000   1.000000
    135         -2.340288       -1.002927   1.000000   1.000000
    136         -2.338123       -0.983817   1.000000   1.000000
    137         -2.331588       -0.977239   1.000000   1.000000
    138         -2.302650       -0.959057   1.000000   1.000000
    139         -2.298591       -0.951459   1.000000   1.000000
    140         -2.294457       -0.919871   1.000000   1.000000
    141         -2.270988       -0.908809   1.000000   1.000000
    142         -2.256009       -0.904114   1.000000   1.000000
    143         -2.250872       -0.878399   1.000000   1.000000
    144         -2.238718       -0.857509   1.000000   1.000000
    145         -2.228070       -0.849351   1.000000   1.000000
    146         -2.218976       -0.842481   1.000000   1.000000
    147         -2.205914       -0.822065   1.000000   1.000000
    148         -2.191872       -0.798085   1.000000   1.000000
    149         -2.178158       -0.785975   1.000000   1.000000
    150         -2.170868       -0.769843   1.000000   1.000000
    151         -2.154237       -0.754080   1.000000   1.000000
    152         -2.133739       -0.737756   1.000000   1.000000
    153         -2.118739       -0.712425   1.000000   1.000000
    154         -2.110221       -0.704504   1.000000   1.000000
    155         -2.099391       -0.696672   1.000000   1.000000
    156         -2.079359       -0.681892   1.000000   1.000000
    157         -2.073537       -0.629689   1.000000   1.000000
    158         -2.059799       -0.624046   1.000000   1.000000
    159         -2.037916       -0.594311   1.000000   1.000000
    160         -2.032305       -0.573682   1.000000   1.000000
    161         -2.018247       -0.565371   1.000000   1.000000
    162         -2.002639       -0.549205   1.000000   1.000000
    163         -1.996507       -0.546288   1.000000   1.000000
    164         -1.969283       -0.516450   1.000000   1.000000
    165         -1.963438       -0.502922   1.000000   1.000000
    166         -1.939924       -0.480778   1.000000   1.000000
    167         -1.937209       -0.466634   1.000000   1.000000
    168         -1.918454       -0.446143   1.000000   1.000000
    169         -1.913590       -0.418541   1.000000   1.000000
    170         -1.900774       -0.414510   1.000000   1.000000
    171         -1.880064       -0.383284   1.000000   1.000000
    172         -1.862348       -0.376879   1.000000   1.000000
    173         -1.854770       -0.358322   1.000000   1.000000
    174         -1.837158       -0.339257   1.000000   1.000000
    175         -1.829323       -0.308269   1.000000   1.000000
    176         -1.814079       -0.294607   1.000000   1.000000
    177         -1.806994       -0.287697   1.000000   1.000000
    178         -1.790924       -0.265527   1.000000   1.000000
    179         -1.775610       -0.245055   1.000000   1.000000
    180         -1.769374       -0.233745   1.000000   1.000000
    181         -1.740939       -0.209341   1.000000   1.000000
    182         -1.711169       -0.199594   1.000000   1.000000
    183         -1.696880       -0.191059   1.000000   1.000000
    184         -1.677466       -0.185862   1.000000   1.000000
    185         -1.666908       -0.174828   1.000000   1.000000
    186         -1.641764       -0.151242   1.000000   1.000000
    187         -1.622733       -0.148147   1.000000   1.000000
    188         -1.613973       -0.123876   1.000000   1.000000
    189         -1.608306       -0.103930   1.000000   1.000000
    190         -1.584767       -0.069210   1.000000   1.000000
    191         -1.563072       -0.036735   1.000000   1.000000
    192         -1.545768       -0.011336   1.000000   1.000000
    193         -1.531820        0.006967   1.000000   1.000000
    194         -1.509910        0.029100   1.000000   1.000000
    195         -1.493197        0.075816   1.000000   1.000000
    196         -1.461411        0.124527   1.000000   1.000000
    197         -1.452206        0.148041   1.000000   1.000000
    198         -1.437458        0.175544   1.000000   1.000000
    199         -1.419770        0.202408   1.000000   1.000000
    200         -1.388726        0.234461   1.000000   1.000000
    201         -1.381716        0.249295   1.000000   1.000000
    202         -1.359252        0.265013   1.000000   1.000000
    203         -1.346958        0.296960   1.000000   1.000000
    204         -1.332035        0.306360   1.000000   1.000000
    205         -1.323599        0.311723   1.000000   1.000000
    206         -1.294188        0.330297   1.000000   1.000000
    207         -1.293051        0.349704   1.000000   1.000000
    208         -1.278140        0.361601   1.000000   1.000000
    209         -1.249512        0.375623   1.000000   1.000000
    210         -1.240344        0.403794   1.000000   1.000000
    211         -1.231052        0.409897   1.000000   1.000001
    212         -1.207948        0.438289   1.000000   1.000002
    213         -1.170593        0.481262   1.000000   1.000013
    214         -1.164965        0.531960   1.000000   1.000096
    215         -1.149795        0.561356   1.000000   1.000275
    216         -1.118969        0.605202   1.000000   1.001123
    217         -1.102237        0.631559   1.000000   1.002381
    218         -1.089426        0.645263   1.000000   1.003418
    219         -1.082104        0.669204   1.000000   1.006117
    220         -1.075931        0.671852   1.000000   1.006498
    221         -1.066640        0.713728   1.000000   1.015080
    222         -1.040728        0.733797   1.000000   1.020793
    223         -1.014584        0.763193   1.000000   1.029662
    224         -1.008445        0.789748   1.000000   1.035073
    225         -0.984156        0.829012   1.000000   1.026595
    226         -0.974801        0.850067   1.000000   1.006715
    227         -0.959524        0.868149   1.000000   0.977290
    228         -0.937267        0.892927   1.000000   0.914876
    229         -0.911927        0.992039   1.000000   0.439199
    230         -0.882812        1.038470   1.000000   0.201660
    231         -0.878168        1.044234   1.000000   0.176937
    232         -0.859251        1.082067   1.000000   0.050196
    233         -0.843343        1.097106   1.000000   0.017326
    234         -0.815653        1.115817   1.000000  -0.010916
    235         -0.794037        1.120720   1.000000  -0.016244
    236         -0.771712        1.129045   1.000000  -0.023548
    237         -0.751586        1.163996   1.000000  -0.035452
    238         -0.736268        1.196686   1.000000  -0.030370
    239         -0.725307        1.205502   1.000000  -0.027868
    240         -0.718128        1.207638   1.000000  -0.027231
    241         -0.697902        1.224880   1.000000  -0.021945
    242         -0.671511        1.236560   1.000000  -0.018452
    243         -0.662917        1.256197   1.000000  -0.013192
    244         -0.660186        1.259071   1.000000  -0.012505
    245         -0.640737        1.270175   1.000000  -0.010070
    246         -0.635288        1.279012   1.000000  -0.008384
    247         -0.610828        1.290711   1.000000  -0.006483
    248         -0.600998        1.317743   1.000000  -0.003371
    249         -0.586780        1.347208   1.000000  -0.001509
    250         -0.570953        1.373500   1.000000  -0.000682
    251         -0.550657        1.391513   1.000000  -0.000380
    252         -0.531369        1.401193   1.000000  -0.000274
    253         -0.527843        1.405239   1.000000  -0.000238
    254         -0.515247        1.439957   1.000000  -0.000067
    255         -0.501413        1.453773   1.000000  -0.000039
    256         -0.486477        1.474139   1.000000  -0.000017
    257         -0.473490        1.487402   1.000000  -0.000010
    258         -0.463445        1.498589   1.000000  -0.000006
    259         -0.453820        1.527523   1.000000  -0.000002
    260         -0.447343        1.529782   1.000000  -0.000001
    261         -0.440721        1.550016   1.000000  -0.000001
    262         -0.425037        1.558925   1.000000  -0.000000
    263         -0.418922        1.580303   1.000000  -0.000000
    264         -0.414335        1.604365   1.000000  -0.000000
    265         -0.400878        1.619365   1.000000  -0.000000
    266         -0.393054        1.641165   1.000000  -0.000000
    267         -0.382977        1.650085   1.000000  -0.000000
    268         -0.375385        1.654536   1.000000  -0.000000
    269         -0.364875        1.670829   1.000000  -0.000000
    270         -0.357495        1.690594   1.000000  -0.000000
    271         -0.338214        1.700642   1.000000  -0.000000
    272         -0.336704        1.724438   1.000000  -0.000000
    273         -0.325227        1.740587   1.000000  -0.000000
    274         -0.314666        1.754360   1.000000  -0.000000
    275         -0.295861        1.759510   1.000000  -0.000000
    276         -0.289465        1.786098   1.000000  -0.000000
    277         -0.280877        1.797291   1.000000  -0.000000
    278         -0.276564        1.805486   1.000000  -0.000000
    279         -0.265131        1.834093   1.000000  -0.000000
    280         -0.254616        1.851673   1.000000  -0.000000
    281         -0.245068        1.858174   1.000000  -0.000000
    282         -0.240262        1.865257   1.000000  -0.000000
    283         -0.229970        1.891952   1.000000  -0.000000
    284         -0.224459        1.920147   1.000000  -0.000000
    285         -0.218411        1.932282   1.000000  -0.000000
    286         -0.199902        1.958665   1.000000  -0.000000
    287         -0.172641        1.969686   1.000000  -0.000000
    288         -0.166435        1.994065   1.000000  -0.000000
    289         -0.157743        2.008345   1.000000  -0.000000
    290         -0.144162        2.015773   1.000000  -0.000000
    291         -0.134849        2.036229   1.000000  -0.000000
    292         -0.128161        2.046908   1.000000  -0.000000
    293         -0.111986        2.058953   1.000000  -0.000000
    294         -0.103565        2.067939   1.000000  -0.000000
    295         -0.086478        2.083783   1.000000  -0.000000
    296         -0.074131        2.106420   1.000000  -0.000000
    297         -0.066551        2.112223   1.000000  -0.000000
    298         -0.058284        2.117616   1.000000  -0.000000
    299         -0.019445        2.124678   1.000000  -0.000000
    300         -0.000943        2.138519   1.000000  -0.000000
    301          0.019154        2.151277   1.000000  -0.000000
    302          0.026964        2.162129   1.000000  -0.000000
    303          0.083729        2.171756   1.000000  -0.000000
    304          0.091720        2.180896   1.000000  -0.000000
    305          0.135338        2.188475   1.000000  -0.000000
    306          0.151400        2.195197   1.000000  -0.000000
    307          0.161043        2.201573   1.000000  -0.000000
    308          0.181821        2.208809   1.000000  -0.000000
    309          0.200811        2.230072   1.000000  -0.000000
    310          0.217544        2.241642   1.000000  -0.000000
    311          0.246228        2.251183   1.000000  -0.000000
    312          0.268471        2.254008   1.000000  -0.000000
    313          0.305709        2.259280   1.000000  -0.000000
    314          0.316886        2.264806   1.000000  -0.000000
    315          0.346080        2.281276   1.000000  -0.000000
    316          0.357096        2.283371   1.000000  -0.000000
    317          0.395334        2.292053   1.000000  -0.000000
    318          0.396242        2.301582   1.000000  -0.000000
    319          0.449230        2.315954   1.000003  -0.000000
    320          0.502596        2.323637   1.000031  -0.000000
    321          0.529436        2.334631   1.000087  -0.000000
    322          0.555865        2.342190   1.000227  -0.000000
    323          0.573214        2.357484   1.000410  -0.000000
    324          0.591776        2.378887   1.000745  -0.000000
    325          0.620888        2.381298   1.001772  -0.000000
    326          0.655634        2.399162   1.004433  -0.000000
    327          0.689806        2.406220   1.009574  -0.000000
    328          0.700830        2.423472   1.011912  -0.000000
    329          0.717722        2.426239   1.016149  -0.000000
    330          0.729656        2.436867   1.019553  -0.000000
    331          0.751000        2.441652   1.026073  -0.000000
    332          0.774324        2.457715   1.032499  -0.000000
    333          0.813521        2.464161   1.033440  -0.000000
    334          0.867765        2.473604   0.978050  -0.000000
    335          0.922718        2.482728   0.803920  -0.000000
    336          0.969336        2.496447   0.566876  -0.000000
    337          1.031293        2.507120   0.234244  -0.000000
    338          1.049531        2.511275   0.155412  -0.000000
    339          1.129409        2.526502  -0.023820  -0.000000
    340          1.140720        2.536701  -0.030508  -0.000000
    341          1.209825        2.556472  -0.026572  -0.000000
    342          1.233869        2.575015  -0.019239  -0.000000
    343          1.262978        2.599150  -0.011608  -0.000000
    344          1.305406        2.620127  -0.004590  -0.000000
    345          1.323128        2.634715  -0.002931  -0.000000
    346          1.359262        2.640668  -0.001057  -0.000000
    347          1.392494        2.642488  -0.000368  -0.000000
    348          1.432867        2.664176  -0.000088  -0.000000
    349          1.438678        2.680965  -0.000071  -0.000000
    350          1.457404        2.682175  -0.000034  -0.000000
    351          1.516493        2.705402  -0.000003  -0.000000
    352          1.522408        2.721970  -0.000002  -0.000000
    353          1.540479        2.729087  -0.000001  -0.000000
    354          1.553972        2.762630  -0.000000  -0.000000
    355          1.595554        2.765854  -0.000000  -0.000000
    356          1.607458        2.794945  -0.000000  -0.000000
    357          1.621442        2.799238  -0.000000  -0.000000
    358          1.652450        2.828015  -0.000000  -0.000000
    359          1.667326        2.836655  -0.000000  -0.000000
    360          1.687623        2.868496  -0.000000  -0.000000
    361          1.738517        2.871263  -0.000000  -0.000000
    362          1.773776        2.913860  -0.000000  -0.000000
    363          1.803695        2.940082  -0.000000  -0.000000
    364          1.821629        2.960995  -0.000000  -0.000000
    365          1.863674        2.987005  -0.000000  -0.000000
    366          1.889850        3.007424  -0.000000  -0.000000
    367          1.915112        3.019852  -0.000000  -0.000000
    368          1.955698        3.031444  -0.000000  -0.000000
    369          1.979355        3.080294  -0.000000  -0.000000
 
  0.2500000E+00  0.6721729E-20  0.0000000E+00  0.1250000E+00
      1        -42.805522      -43.370783   1.000000   1.000000
      2        -42.787788      -43.311483   1.000000   1.000000
      3        -42.773782      -43.310515   1.000000   1.000000
      4        -42.765863      -43.306917   1.000000   1.000000
      5        -42.740640      -43.277210   1.000000   1.000000
      6        -42.724749      -43.256886   1.000000   1.000000
      7        -42.703675      -43.222885   1.000000   1.000000
      8        -42.701361      -43.213544   1.000000   1.000000
      9        -42.691094      -43.193035   1.000000   1.000000
     10        -42.314091      -43.184167   1.000000   1.000000
     11        -42.236170      -43.163538   1.000000   1.000000
     12        -42.190463      -43.158234   1.000000   1.000000
     13        -41.944269      -43.153796   1.000000   1.000000
     14        -41.917915      -43.145279   1.000000   1.000000
     15        -41.913975      -43.136506   1.000000   1.000000
     16        -41.895200      -43.130086   1.000000   1.000000
     17        -41.854945      -43.100437   1.000000   1.000000
     18        -41.832733      -43.050263   1.000000   1.000000
     19        -41.829219      -43.028306   1.000000   1.000000
     20        -41.822576      -42.988680   1.000000   1.000000
     21        -41.816827      -42.959005   1.000000   1.000000
     22        -41.805390      -42.958135   1.000000   1.000000
     23        -41.788105      -42.882968   1.000000   1.000000
     24        -41.785203      -42.869859   1.000000   1.000000
     25        -41.776530      -42.798926   1.000000   1.000000
     26        -41.770867      -42.759405   1.000000   1.000000
     27        -41.761977      -42.702918   1.000000   1.000000
     28        -41.741801      -41.581171   1.000000   1.000000
     29        -41.725348      -41.485788   1.000000   1.000000
     30        -41.720258      -41.426378   1.000000   1.000000
     31        -41.715631      -40.441814   1.000000   1.000000
     32        -41.711002      -40.429540   1.000000   1.000000
     33        -41.694997      -40.122333   1.000000   1.000000
     34        -40.333229      -40.006358   1.000000   1.000000
     35        -40.291013      -39.909375   1.000000   1.000000
     36        -40.201455      -39.906504   1.000000   1.000000
     37        -40.195151      -39.781961   1.000000   1.000000
     38        -40.182259      -39.720529   1.000000   1.000000
     39        -40.060049      -39.622076   1.000000   1.000000
     40        -15.530818      -15.544384   1.000000   1.000000
     41        -15.520239      -15.522775   1.000000   1.000000
     42        -15.518828      -15.520608   1.000000   1.000000
     43        -15.506862      -15.510017   1.000000   1.000000
     44        -15.483439      -15.494100   1.000000   1.000000
     45         -7.863770       -7.872745   1.000000   1.000000
     46         -7.024958       -6.920257   1.000000   1.000000
     47         -6.098249       -5.951340   1.000000   1.000000
     48         -5.949475       -5.806239   1.000000   1.000000
     49         -5.220144       -5.000128   1.000000   1.000000
     50         -5.124142       -4.953091   1.000000   1.000000
     51         -5.055947       -4.886009   1.000000   1.000000
     52         -4.768294       -4.471750   1.000000   1.000000
     53         -4.530688       -4.213815   1.000000   1.000000
     54         -4.488930       -4.177164   1.000000   1.000000
     55         -4.461279       -4.160041   1.000000   1.000000
     56         -4.384018       -4.131313   1.000000   1.000000
     57         -4.339915       -4.049800   1.000000   1.000000
     58         -4.219830       -3.790593   1.000000   1.000000
     59         -4.105060       -3.579482   1.000000   1.000000
     60         -4.027661       -3.452162   1.000000   1.000000
     61         -3.967766       -3.362912   1.000000   1.000000
     62         -3.946260       -3.317674   1.000000   1.000000
     63         -3.879695       -3.310956   1.000000   1.000000
     64         -3.838468       -3.249069   1.000000   1.000000
     65         -3.804336       -3.228775   1.000000   1.000000
     66         -3.779578       -3.139216   1.000000   1.000000
     67         -3.753739       -3.076922   1.000000   1.000000
     68         -3.721115       -2.884216   1.000000   1.000000
     69         -3.656578       -2.853017   1.000000   1.000000
     70         -3.629890       -2.807783   1.000000   1.000000
     71         -3.563461       -2.761935   1.000000   1.000000
     72         -3.536278       -2.650801   1.000000   1.000000
     73         -3.527949       -2.627067   1.000000   1.000000
     74         -3.510381       -2.596095   1.000000   1.000000
     75         -3.470032       -2.575653   1.000000   1.000000
     76         -3.456004       -2.537364   1.000000   1.000000
     77         -3.444951       -2.501403   1.000000   1.000000
     78         -3.415575       -2.438492   1.000000   1.000000
     79         -3.372191       -2.411977   1.000000   1.000000
     80         -3.322983       -2.345351   1.000000   1.000000
     81         -3.293934       -2.328502   1.000000   1.000000
     82         -3.281861       -2.284686   1.000000   1.000000
     83         -3.249247       -2.256693   1.000000   1.000000
     84         -3.231930       -2.195043   1.000000   1.000000
     85         -3.227721       -2.169234   1.000000   1.000000
     86         -3.214792       -2.134975   1.000000   1.000000
     87         -3.198664       -2.089231   1.000000   1.000000
     88         -3.186694       -2.047543   1.000000   1.000000
     89         -3.178131       -2.033985   1.000000   1.000000
     90         -3.150736       -2.012601   1.000000   1.000000
     91         -3.141445       -1.982108   1.000000   1.000000
     92         -3.110384       -1.970619   1.000000   1.000000
     93         -3.104893       -1.939777   1.000000   1.000000
     94         -3.079158       -1.927305   1.000000   1.000000