srun: ROUTE: split_hostlist: hl=e08r4n07 tree_width 0
 running on    4 total cores
 distrk:  each k-point on    1 cores,    4 groups
 distr:  one band on    1 cores,    1 groups
 HIP runtime initialized ...    4 DCUs will be used
 Created    4 streams on each DCU
 vasp.6.3.2 27Jun22 (build Mar 15 2023 15:45:48) complex                        
  
 POSCAR found type information on POSCAR FeCrPb
 POSCAR found :  3 types and      63 ions
 Reading from existing POTCAR
 -----------------------------------------------------------------------------
|                                                                             |
|           W    W    AA    RRRRR   N    N  II  N    N   GGGG   !!!           |
|           W    W   A  A   R    R  NN   N  II  NN   N  G    G  !!!           |
|           W    W  A    A  R    R  N N  N  II  N N  N  G       !!!           |
|           W WW W  AAAAAA  RRRRR   N  N N  II  N  N N  G  GGG   !            |
|           WW  WW  A    A  R   R   N   NN  II  N   NN  G    G                |
|           W    W  A    A  R    R  N    N  II  N    N   GGGG   !!!           |
|                                                                             |
|     You use a magnetic or noncollinear calculation, but did not specify     |
|     the initial magnetic moment with the MAGMOM tag. Note that a            |
|     default of 1 will be used for all atoms. This ferromagnetic setup       |
|     may break the symmetry of the crystal, in particular it may rule        |
|     out finding an antiferromagnetic solution. Thence, we recommend         |
|     setting the initial magnetic moment manually or verifying carefully     |
|     that this magnetic setup is desired.                                    |
|                                                                             |
 -----------------------------------------------------------------------------

 scaLAPACK will be used selectively (only on CPU)
 Reading from existing POTCAR
 LDA part: xc-table for Pade appr. of Perdew
 POSCAR found type information on POSCAR FeCrPb
 POSCAR found :  3 types and      63 ions
 Optimize memory usage for KPAR
 POSCAR, INCAR and KPOINTS ok, starting setup
 FFT: planning ... GRIDC
 FFT: planning ... GRID_SOFT
 FFT: planning ... GRID
 WAVECAR not read
 WARNING: chargedensity file is incomplete
 WARNING: random wavefunctions but no delay for mixing, default for NELMDL
 entering main loop
       N       E                     dE             d eps       ncg     rms          rms(c)
DAV:   1     0.553314201010E+04    0.55331E+04   -0.23812E+05 15672   0.144E+03
DAV:   2    -0.628114749267E+02   -0.55960E+04   -0.53998E+04 14760   0.421E+02
DAV:   3    -0.517442072785E+03   -0.45463E+03   -0.40259E+03 15167   0.163E+02
DAV:   4    -0.576648633022E+03   -0.59207E+02   -0.55479E+02 25976   0.453E+01
DAV:   5    -0.580011240954E+03   -0.33626E+01   -0.31817E+01 24176   0.107E+01    0.937E+01
DAV:   6    -0.726305942801E+03   -0.14629E+03   -0.34929E+02 26928   0.883E+01    0.152E+02
DAV:   7    -0.688298000106E+03    0.38008E+02   -0.38091E+02 27424   0.118E+02    0.146E+02
DAV:   8    -0.547905443386E+03    0.14039E+03   -0.19357E+02 27240   0.809E+01    0.891E+01
DAV:   9    -0.528760336138E+03    0.19145E+02   -0.71578E+01 25360   0.374E+01    0.686E+01
DAV:  10    -0.515630857515E+03    0.13129E+02   -0.42582E+01 24224   0.266E+01    0.623E+01
DAV:  11    -0.497686700283E+03    0.17944E+02   -0.80771E+01 21712   0.353E+01    0.525E+01
DAV:  12    -0.491593003348E+03    0.60937E+01   -0.34206E+01 21096   0.220E+01    0.374E+01
DAV:  13    -0.491670621623E+03   -0.77618E-01   -0.64545E+00 21008   0.102E+01    0.350E+01
DAV:  14    -0.491436691452E+03    0.23393E+00   -0.10072E+00 23232   0.357E+00    0.362E+01
DAV:  15    -0.492579837135E+03   -0.11431E+01   -0.69415E-01 25760   0.337E+00    0.350E+01
DAV:  16    -0.496606100293E+03   -0.40263E+01   -0.47102E+00 25200   0.808E+00    0.311E+01
DAV:  17    -0.498574214783E+03   -0.19681E+01   -0.66521E+00 25344   0.107E+01    0.260E+01
DAV:  18    -0.499881236024E+03   -0.13070E+01   -0.27603E+00 23896   0.553E+00    0.232E+01
DAV:  19    -0.500652131367E+03   -0.77090E+00   -0.79214E-01 24416   0.302E+00    0.224E+01
DAV:  20    -0.501067023139E+03   -0.41489E+00   -0.51923E-01 24960   0.251E+00    0.206E+01
DAV:  21    -0.501548945007E+03   -0.48192E+00   -0.13983E+00 25480   0.474E+00    0.166E+01
DAV:  22    -0.501714971459E+03   -0.16603E+00   -0.12021E+00 25640   0.506E+00    0.139E+01
DAV:  23    -0.501789097946E+03   -0.74126E-01   -0.53294E-01 24376   0.279E+00    0.124E+01
DAV:  24    -0.501933892200E+03   -0.14479E+00   -0.32774E-01 24976   0.231E+00    0.111E+01
DAV:  25    -0.502273965600E+03   -0.34007E+00   -0.10026E+00 26456   0.370E+00    0.891E+00
DAV:  26    -0.502486292975E+03   -0.21233E+00   -0.12801E+00 25040   0.329E+00    0.665E+00
DAV:  27    -0.502533759386E+03   -0.47466E-01   -0.41522E-01 24560   0.200E+00    0.569E+00
DAV:  28    -0.502589974373E+03   -0.56215E-01   -0.13115E-01 24152   0.157E+00    0.521E+00
DAV:  29    -0.502655298496E+03   -0.65324E-01   -0.25555E-01 26184   0.164E+00    0.437E+00
DAV:  30    -0.502680659473E+03   -0.25361E-01   -0.16611E-01 23848   0.120E+00    0.368E+00
DAV:  31    -0.502678063906E+03    0.25956E-02   -0.48019E-02 24848   0.883E-01    0.292E+00
DAV:  32    -0.502680589343E+03   -0.25254E-02   -0.52621E-02 25936   0.899E-01    0.239E+00
DAV:  33    -0.502687089397E+03   -0.65001E-02   -0.30792E-02 24608   0.558E-01    0.194E+00
DAV:  34    -0.502692306987E+03   -0.52176E-02   -0.23451E-02 25888   0.540E-01    0.146E+00
DAV:  35    -0.502693743087E+03   -0.14361E-02   -0.18395E-02 25944   0.492E-01    0.110E+00
DAV:  36    -0.502695091910E+03   -0.13488E-02   -0.16133E-02 24152   0.380E-01    0.935E-01
DAV:  37    -0.502697098780E+03   -0.20069E-02   -0.56985E-03 24880   0.279E-01    0.849E-01
DAV:  38    -0.502699893365E+03   -0.27946E-02   -0.68668E-03 26136   0.297E-01    0.742E-01
DAV:  39    -0.502699604486E+03    0.28888E-03   -0.25655E-03 24544   0.195E-01    0.558E-01
DAV:  40    -0.502699173586E+03    0.43090E-03   -0.26002E-03 26712   0.196E-01    0.383E-01
DAV:  41    -0.502699518463E+03   -0.34488E-03   -0.10741E-03 22248   0.120E-01    0.330E-01
DAV:  42    -0.502699871412E+03   -0.35295E-03   -0.86116E-04 25816   0.101E-01    0.279E-01
DAV:  43    -0.502700297558E+03   -0.42615E-03   -0.13309E-03 25920   0.123E-01    0.225E-01
DAV:  44    -0.502700253399E+03    0.44159E-04   -0.68105E-04 25016   0.105E-01    0.145E-01
DAV:  45    -0.502700314273E+03   -0.60874E-04   -0.20761E-04 22504   0.553E-02    0.114E-01
DAV:  46    -0.502700374318E+03   -0.60045E-04   -0.19658E-04 23264   0.454E-02    0.941E-02
DAV:  47    -0.502700411981E+03   -0.37663E-04   -0.13632E-04 22152   0.351E-02    0.762E-02
DAV:  48    -0.502700427639E+03   -0.15658E-04   -0.37318E-05 14592   0.237E-02    0.740E-02
DAV:  49    -0.502700422417E+03    0.52227E-05   -0.53639E-05 12544   0.353E-02
   1 F= -.50270042E+03 E0= -.50270708E+03  d E =-.502700E+03  mag=   108.2929
 curvature:   0.00 expect dE= 0.000E+00 dE for cont linesearch  0.000E+00
 trial: gam= 0.00000 g(F)=  0.224E+01 g(S)=  0.000E+00 ort = 0.000E+00 (trialstep = 0.100E+01)
 search vector abs. value=  0.224E+01
 bond charge predicted
       N       E                     dE             d eps       ncg     rms          rms(c)
DAV:   1    -0.497591355774E+03    0.51091E+01   -0.10408E+03 18758   0.644E+01    0.169E+01
DAV:   2    -0.506524301767E+03   -0.89329E+01   -0.59465E+01 21324   0.215E+01    0.251E+01
DAV:   3    -0.508222285699E+03   -0.16980E+01   -0.22070E+01 26376   0.304E+01    0.275E+01
DAV:   4    -0.503543349400E+03    0.46789E+01   -0.92532E+00 27255   0.190E+01    0.922E+00
DAV:   5    -0.503493762610E+03    0.49587E-01   -0.98261E-01 21176   0.458E+00    0.578E+00
DAV:   6    -0.503556395279E+03   -0.62633E-01   -0.35301E-01 23176   0.308E+00    0.512E+00
DAV:   7    -0.503664153675E+03   -0.10776E+00   -0.13562E-01 26432   0.178E+00    0.455E+00
DAV:   8    -0.503730591569E+03   -0.66438E-01   -0.98321E-02 21736   0.147E+00    0.312E+00
DAV:   9    -0.503711552446E+03    0.19039E-01   -0.10732E-01 24480   0.180E+00    0.156E+00
DAV:  10    -0.503713817599E+03   -0.22652E-02   -0.21546E-02 23560   0.534E-01    0.147E+00
DAV:  11    -0.503709914569E+03    0.39030E-02   -0.69870E-03 18928   0.402E-01    0.115E+00
DAV:  12    -0.503706382652E+03    0.35319E-02   -0.14464E-02 27056   0.570E-01    0.873E-01
DAV:  13    -0.503704900943E+03    0.14817E-02   -0.58815E-03 22720   0.267E-01    0.700E-01
DAV:  14    -0.503704582553E+03    0.31839E-03   -0.27520E-03 23096   0.182E-01    0.529E-01
DAV:  15    -0.503704656068E+03   -0.73515E-04   -0.16876E-03 24184   0.180E-01    0.339E-01
DAV:  16    -0.503704885286E+03   -0.22922E-03   -0.85634E-04 24824   0.140E-01    0.244E-01
DAV:  17    -0.503705027739E+03   -0.14245E-03   -0.33036E-04 23208   0.766E-02    0.239E-01
DAV:  18    -0.503705021056E+03    0.66826E-05   -0.21651E-04 23064   0.642E-02    0.187E-01
DAV:  19    -0.503704932444E+03    0.88612E-04   -0.30432E-04 24272   0.844E-02    0.980E-02
DAV:  20    -0.503704930157E+03    0.22870E-05   -0.79652E-05 17072   0.336E-02
   2 F= -.50370493E+03 E0= -.50370942E+03  d E =-.100451E+01  mag=   108.1075
 trial-energy change:   -1.004508  1 .order   -1.156521   -2.236196   -0.076845
 step:   1.0647(harm=  1.0356)  dis= 0.22136  next Energy=  -503.707374 (dE=-0.101E+01)
 bond charge predicted
       N       E                     dE             d eps       ncg     rms          rms(c)
DAV:   1    -0.503674099799E+03    0.30833E-01   -0.34039E+00 18348   0.384E+00    0.788E-01
DAV:   2    -0.503708769229E+03   -0.34669E-01   -0.31090E-01 18852   0.109E+00    0.942E-01
DAV:   3    -0.503719118618E+03   -0.10349E-01   -0.78741E-02 24488   0.142E+00    0.152E+00
DAV:   4    -0.503705527663E+03    0.13591E-01   -0.32453E-02 26560   0.878E-01    0.378E-01
DAV:   5    -0.503706539640E+03   -0.10120E-02   -0.16847E-03 23808   0.188E-01    0.336E-01
DAV:   6    -0.503707280488E+03   -0.74085E-03   -0.17188E-03 23208   0.254E-01    0.244E-01
DAV:   7    -0.503707313071E+03   -0.32583E-04   -0.47639E-04 22176   0.102E-01    0.148E-01
DAV:   8    -0.503707245297E+03    0.67774E-04   -0.16647E-04 17768   0.627E-02    0.872E-02
DAV:   9    -0.503707251932E+03   -0.66352E-05   -0.77124E-05 17344   0.232E-02
   3 F= -.50370725E+03 E0= -.50371152E+03  d E =-.100683E+01  mag=   108.0897
 curvature:  -0.17 expect dE=-0.114E-01 dE for cont linesearch -0.293E-06
 trial: gam= 0.03040 g(F)=  0.660E-01 g(S)=  0.000E+00 ort =-0.195E-02 (trialstep = 0.101E+01)
 search vector abs. value=  0.680E-01
 bond charge predicted
       N       E                     dE             d eps       ncg     rms          rms(c)
DAV:   1    -0.503668814394E+03    0.38431E-01   -0.16130E+01 14680   0.639E+00    0.193E+00
DAV:   2    -0.503756232660E+03   -0.87418E-01   -0.60745E-01 21526   0.237E+00    0.242E+00
DAV:   3    -0.503773523993E+03   -0.17291E-01   -0.28367E-01 24152   0.280E+00    0.286E+00
DAV:   4    -0.503744514934E+03    0.29009E-01   -0.85499E-02 25183   0.147E+00    0.126E+00
DAV:   5    -0.503753465211E+03   -0.89503E-02   -0.11858E-02 25376   0.659E-01    0.967E-01
DAV:   6    -0.503759517775E+03   -0.60526E-02   -0.11862E-02 23552   0.615E-01    0.471E-01
DAV:   7    -0.503759706061E+03   -0.18829E-03   -0.26894E-03 22208   0.262E-01    0.340E-01
DAV:   8    -0.503759605508E+03    0.10055E-03   -0.65703E-04 23944   0.101E-01    0.288E-01
DAV:   9    -0.503759497044E+03    0.10846E-03   -0.38645E-04 22912   0.723E-02    0.233E-01
DAV:  10    -0.503759411707E+03    0.85336E-04   -0.72386E-04 24840   0.109E-01    0.177E-01
DAV:  11    -0.503759311572E+03    0.10014E-03   -0.36467E-04 22784   0.708E-02    0.119E-01
DAV:  12    -0.503759308465E+03    0.31063E-05   -0.86244E-05 16872   0.428E-02
   4 F= -.50375931E+03 E0= -.50376338E+03  d E =-.520565E-01  mag=   108.1068
 trial-energy change:   -0.052057  1 .order   -0.052606   -0.066811   -0.038401
 step:   3.1580(harm=  2.3820)  dis= 0.05647  next Energy=  -503.794751 (dE=-0.875E-01)
 bond charge predicted
       N       E                     dE             d eps       ncg     rms          rms(c)
DAV:   1    -0.503338260687E+03    0.42105E+00   -0.72923E+01 14680   0.137E+01    0.422E+00
DAV:   2    -0.503763648060E+03   -0.42539E+00   -0.30458E+00 21868   0.530E+00    0.513E+00
DAV:   3    -0.503909278353E+03   -0.14563E+00   -0.13799E+00 25072   0.635E+00    0.677E+00
DAV:   4    -0.503705249847E+03    0.20403E+00   -0.49708E-01 26063   0.361E+00    0.273E+00
DAV:   5    -0.503742823736E+03   -0.37574E-01   -0.54744E-02 25904   0.136E+00    0.218E+00
DAV:   6    -0.503774924690E+03   -0.32101E-01   -0.56534E-02 23432   0.131E+00    0.103E+00
DAV:   7    -0.503777058801E+03   -0.21341E-02   -0.12853E-02 22192   0.571E-01    0.745E-01
DAV:   8    -0.503776687137E+03    0.37166E-03   -0.32199E-03 23808   0.248E-01    0.635E-01
DAV:   9    -0.503776210283E+03    0.47685E-03   -0.13628E-03 23040   0.150E-01    0.541E-01
DAV:  10    -0.503775704008E+03    0.50627E-03   -0.28736E-03 25032   0.219E-01    0.427E-01
DAV:  11    -0.503775076719E+03    0.62729E-03   -0.22778E-03 22928   0.171E-01    0.266E-01
DAV:  12    -0.503775094272E+03   -0.17553E-04   -0.50264E-04 24136   0.859E-02    0.224E-01
DAV:  13    -0.503775263817E+03   -0.16955E-03   -0.49845E-04 23616   0.779E-02    0.178E-01
DAV:  14    -0.503775343826E+03   -0.80009E-04   -0.23971E-04 21768   0.571E-02    0.141E-01
DAV:  15    -0.503775284436E+03    0.59390E-04   -0.10042E-04 14152   0.578E-02    0.868E-02
DAV:  16    -0.503775303093E+03   -0.18657E-04   -0.12401E-04 18600   0.478E-02    0.761E-02
DAV:  17    -0.503775320672E+03   -0.17579E-04   -0.91178E-05 17912   0.249E-02    0.668E-02
DAV:  18    -0.503775314092E+03    0.65798E-05   -0.18873E-05  8864   0.234E-02
   5 F= -.50377531E+03 E0= -.50377874E+03  d E =-.680622E-01  mag=   108.0749
 curvature:  -0.83 expect dE=-0.370E-01 dE for cont linesearch -0.587E-02
 ZBRENT: interpolating
 opt :   2.3731  next Energy=  -503.783900 (dE=-0.766E-01)
 bond charge predicted
       N       E                     dE             d eps       ncg     rms          rms(c)
DAV:   1    -0.503730883192E+03    0.44437E-01   -0.96891E+00 14760   0.495E+00    0.148E+00
DAV:   2    -0.503776855103E+03   -0.45972E-01   -0.33766E-01 19780   0.158E+00    0.166E+00
DAV:   3    -0.503795083667E+03   -0.18229E-01   -0.15361E-01 22752   0.206E+00    0.229E+00
DAV:   4    -0.503775292529E+03    0.19791E-01   -0.68274E-02 26136   0.124E+00    0.972E-01
DAV:   5    -0.503781228871E+03   -0.59363E-02   -0.70981E-03 26792   0.480E-01    0.717E-01
DAV:   6    -0.503784631544E+03   -0.34027E-02   -0.78696E-03 24504   0.530E-01    0.453E-01
DAV:   7    -0.503784291739E+03    0.33981E-03   -0.20900E-03 22640   0.245E-01    0.271E-01
DAV:   8    -0.503784196453E+03    0.95286E-04   -0.61488E-04 24512   0.100E-01    0.228E-01
DAV:   9    -0.503784136435E+03    0.60018E-04   -0.36277E-04 18920   0.606E-02    0.196E-01
DAV:  10    -0.503783981025E+03    0.15541E-03   -0.68346E-04 25480   0.100E-01    0.112E-01
DAV:  11    -0.503783967487E+03    0.13538E-04   -0.15670E-04 20720   0.438E-02    0.875E-02
DAV:  12    -0.503783965171E+03    0.23158E-05   -0.22912E-05 10624   0.249E-02
   6 F= -.50378397E+03 E0= -.50378767E+03  d E =-.767132E-01  mag=   108.0976
 curvature:  -1.22 expect dE=-0.252E-01 dE for cont linesearch -0.294E-04
 trial: gam= 0.35969 g(F)=  0.206E-01 g(S)=  0.000E+00 ort =-0.128E-02 (trialstep = 0.128E+01)
 search vector abs. value=  0.285E-01
 bond charge predicted
       N       E                     dE             d eps       ncg     rms          rms(c)
DAV:   1    -0.503725212506E+03    0.58755E-01   -0.13652E+01 15301   0.542E+00    0.129E+00
DAV:   2    -0.503798151901E+03   -0.72939E-01   -0.65979E-01 16760   0.163E+00    0.122E+00
DAV:   3    -0.503832191373E+03   -0.34039E-01   -0.14238E-01 25080   0.194E+00    0.249E+00
DAV:   4    -0.503799560351E+03    0.32631E-01   -0.85115E-02 27232   0.144E+00    0.723E-01
DAV:   5    -0.503806547724E+03   -0.69874E-02   -0.77748E-03 23208   0.365E-01    0.490E-01
DAV:   6    -0.503807020755E+03   -0.47303E-03   -0.19403E-03 22896   0.188E-01    0.338E-01
DAV:   7    -0.503806481528E+03    0.53923E-03   -0.12899E-03 24448   0.215E-01    0.181E-01
DAV:   8    -0.503806506572E+03   -0.25045E-04   -0.22732E-04 21072   0.577E-02    0.165E-01
DAV:   9    -0.503806442358E+03    0.64214E-04   -0.17261E-04 21576   0.501E-02    0.130E-01
DAV:  10    -0.503806359711E+03    0.82647E-04   -0.29741E-04 22440   0.524E-02    0.780E-02
DAV:  11    -0.503806351645E+03    0.80656E-05   -0.66515E-05 17096   0.304E-02
   7 F= -.50380635E+03 E0= -.50381025E+03  d E =-.223865E-01  mag=   108.0797
 trial-energy change:   -0.022386  1 .order   -0.022561   -0.025935   -0.019187
 step:   4.9385(harm=  4.9385)  dis= 0.10396  next Energy=  -503.833803 (dE=-0.498E-01)
 bond charge predicted
       N       E                     dE             d eps       ncg     rms          rms(c)
DAV:   1    -0.503383248352E+03    0.42311E+00   -0.11811E+02 15525   0.161E+01    0.365E+00
DAV:   2    -0.503772381337E+03   -0.38913E+00   -0.32354E+00 17236   0.462E+00    0.366E+00
DAV:   3    -0.503988339769E+03   -0.21596E+00   -0.10511E+00 25760   0.535E+00    0.643E+00
DAV:   4    -0.503782001773E+03    0.20634E+00   -0.56525E-01 26744   0.379E+00    0.208E+00
DAV:   5    -0.503827570112E+03   -0.45568E-01   -0.47373E-02 23000   0.878E-01    0.124E+00
DAV:   6    -0.503841696623E+03   -0.14127E-01   -0.29006E-02 26192   0.103E+00    0.135E+00
DAV:   7    -0.503833394833E+03    0.83018E-02   -0.16282E-02 24408   0.770E-01    0.654E-01
DAV:   8    -0.503832638751E+03    0.75608E-03   -0.43360E-03 23672   0.282E-01    0.472E-01
DAV:   9    -0.503832363734E+03    0.27502E-03   -0.13343E-03 17568   0.122E-01    0.412E-01
DAV:  10    -0.503831656811E+03    0.70692E-03   -0.20770E-03 22664   0.134E-01    0.279E-01
DAV:  11    -0.503831641732E+03    0.15079E-04   -0.11171E-03 23776   0.118E-01    0.263E-01
DAV:  12    -0.503831552943E+03    0.88789E-04   -0.38534E-04 22184   0.954E-02    0.175E-01
DAV:  13    -0.503831657392E+03   -0.10445E-03   -0.55483E-04 25400   0.102E-01    0.127E-01
DAV:  14    -0.503831705648E+03   -0.48256E-04   -0.13694E-04 17976   0.381E-02    0.110E-01
DAV:  15    -0.503831685238E+03    0.20410E-04   -0.38431E-05 12824   0.365E-02    0.725E-02
DAV:  16    -0.503831683516E+03    0.17217E-05   -0.78513E-05 15200   0.327E-02
   8 F= -.50383168E+03 E0= -.50383615E+03  d E =-.477183E-01  mag=   108.0038
 curvature:  -3.49 expect dE=-0.592E-01 dE for cont linesearch -0.885E-04
 trial: gam= 0.85820 g(F)=  0.170E-01 g(S)=  0.000E+00 ort =-0.851E-03 (trialstep = 0.157E+01)
 search vector abs. value=  0.365E-01
 bond charge predicted
       N       E                     dE             d eps       ncg     rms          rms(c)
DAV:   1    -0.503692439687E+03    0.13925E+00   -0.28522E+01 15627   0.678E+00    0.163E+00
DAV:   2    -0.503837471248E+03   -0.14503E+00   -0.13768E+00 15980   0.187E+00    0.127E+00
DAV:   3    -0.503916685123E+03   -0.79214E-01   -0.24256E-01 25728   0.240E+00    0.354E+00
DAV:   4    -0.503843217093E+03    0.73468E-01   -0.21234E-01 27640   0.211E+00    0.991E-01
DAV:   5    -0.503851275115E+03   -0.80580E-02   -0.10058E-02 26600   0.459E-01    0.798E-01
DAV:   6    -0.503854596627E+03   -0.33215E-02   -0.10458E-02 25024   0.606E-01    0.500E-01
DAV:   7    -0.503854128118E+03    0.46851E-03   -0.37268E-03 22848   0.307E-01    0.220E-01
DAV:   8    -0.503854161883E+03   -0.33765E-04   -0.57851E-04 20008   0.780E-02    0.204E-01
DAV:   9    -0.503854143545E+03    0.18338E-04   -0.19220E-04 19016   0.531E-02    0.177E-01
DAV:  10    -0.503854088636E+03    0.54909E-04   -0.56160E-04 22880   0.784E-02    0.104E-01
DAV:  11    -0.503854113517E+03   -0.24881E-04   -0.12348E-04 19184   0.338E-02    0.105E-01
DAV:  12    -0.503854121647E+03   -0.81302E-05   -0.37706E-05 13072   0.266E-02
   9 F= -.50385412E+03 E0= -.50385891E+03  d E =-.224381E-01  mag=   107.9948
 ZBRENT: can't locate minimum, use default step
 trial-energy change:   -0.022438  1 .order   -0.022650   -0.025562   -0.019737
 step:   6.2976(harm=  6.9090)  dis= 0.16719  next Energy=  -503.887771 (dE=-0.561E-01)
 bond charge predicted
       N       E                     dE             d eps       ncg     rms          rms(c)
DAV:   1    -0.502941751850E+03    0.91236E+00   -0.30317E+02 16002   0.226E+01    0.482E+00
DAV:   2    -0.503721150775E+03   -0.77940E+00   -0.71362E+00 15867   0.536E+00    0.355E+00
DAV:   3    -0.504154848272E+03   -0.43370E+00   -0.10951E+00 27872   0.499E+00    0.791E+00
DAV:   4    -0.503812451804E+03    0.34240E+00   -0.10258E+00 27440   0.535E+00    0.309E+00
DAV:   5    -0.503870923795E+03   -0.58472E-01   -0.12661E-01 26360   0.180E+00    0.187E+00
DAV:   6    -0.503884179145E+03   -0.13255E-01   -0.61361E-02 24624   0.157E+00    0.116E+00
DAV:   7    -0.503884425032E+03   -0.24589E-03   -0.20798E-02 23432   0.801E-01    0.701E-01
DAV:   8    -0.503884302706E+03    0.12233E-03   -0.44190E-03 18408   0.272E-01    0.609E-01
DAV:   9    -0.503883910452E+03    0.39225E-03   -0.18270E-03 24432   0.161E-01    0.503E-01
DAV:  10    -0.503883601007E+03    0.30945E-03   -0.33167E-03 21656   0.168E-01    0.368E-01
DAV:  11    -0.503883498123E+03    0.10288E-03   -0.11919E-03 22952   0.127E-01    0.310E-01
DAV:  12    -0.503883449234E+03    0.48889E-04   -0.40565E-04 24208   0.809E-02    0.232E-01
DAV:  13    -0.503883750426E+03   -0.30119E-03   -0.74317E-04 24408   0.987E-02    0.166E-01
DAV:  14    -0.503883787321E+03   -0.36895E-04   -0.29814E-04 22800   0.724E-02    0.108E-01
DAV:  15    -0.503883788725E+03   -0.14039E-05   -0.69016E-05 15104   0.340E-02
  10 F= -.50388379E+03 E0= -.50388931E+03  d E =-.521052E-01  mag=   107.8856
 curvature:  -7.67 expect dE=-0.214E+00 dE for cont linesearch -0.535E-05
 trial: gam= 1.61456 g(F)=  0.279E-01 g(S)=  0.000E+00 ort = 0.160E-03 (trialstep = 0.744E+00)
 search vector abs. value=  0.124E+00
 bond charge predicted
       N       E                     dE             d eps       ncg     rms          rms(c)
DAV:   1    -0.503797812054E+03    0.85975E-01   -0.23095E+01 16784   0.455E+00    0.985E-01
DAV:   2    -0.503901241574E+03   -0.10343E+00   -0.99825E-01 19072   0.131E+00    0.916E-01
DAV:   3    -0.503926970226E+03   -0.25729E-01   -0.11556E-01 26472   0.166E+00    0.210E+00
DAV:   4    -0.503900747406E+03    0.26223E-01   -0.58939E-02 27296   0.118E+00    0.507E-01
DAV:   5    -0.503903416639E+03   -0.26692E-02   -0.29072E-03 25424   0.265E-01    0.446E-01
DAV:   6    -0.503904827624E+03   -0.14110E-02   -0.32170E-03 24031   0.336E-01    0.290E-01
DAV:   7    -0.503904626464E+03    0.20116E-03   -0.10258E-03 23320   0.172E-01    0.138E-01
DAV:   8    -0.503904648687E+03   -0.22223E-04   -0.22123E-04 21880   0.476E-02    0.121E-01
DAV:   9    -0.503904673595E+03   -0.24908E-04   -0.62208E-05 16560   0.260E-02    0.111E-01
DAV:  10    -0.503904719058E+03   -0.45463E-04   -0.24681E-04 22656   0.423E-02    0.665E-02
DAV:  11    -0.503904735451E+03   -0.16393E-04   -0.66735E-05 16480   0.235E-02    0.557E-02
DAV:  12    -0.503904743225E+03   -0.77744E-05   -0.11723E-05  9136   0.140E-02
  11 F= -.50390474E+03 E0= -.50391029E+03  d E =-.209545E-01  mag=   107.8687
 ZBRENT: can't locate minimum, use default step
 trial-energy change:   -0.020954  1 .order   -0.020927   -0.020981   -0.020873
 step:   2.9754(harm=144.5947)  dis= 0.15698  next Energy=  -505.922979 (dE=-0.204E+01)
 bond charge predicted
       N       E                     dE             d eps       ncg     rms          rms(c)
DAV:   1    -0.503466753080E+03    0.43798E+00   -0.24937E+02 16910   0.158E+01    0.270E+00
DAV:   2    -0.503983507592E+03   -0.51675E+00   -0.44479E+00 21180   0.424E+00    0.385E+00
DAV:   3    -0.503981450938E+03    0.20567E-02   -0.73261E-01 25536   0.413E+00    0.351E+00
DAV:   4    -0.503943997839E+03    0.37453E-01   -0.12213E-01 25438   0.175E+00    0.160E+00
DAV:   5    -0.503953649131E+03   -0.96513E-02   -0.21582E-02 24936   0.892E-01    0.124E+00
DAV:   6    -0.503966437625E+03   -0.12788E-01   -0.20823E-02 22904   0.734E-01    0.556E-01
DAV:   7    -0.503967115837E+03   -0.67821E-03   -0.39128E-03 21992   0.249E-01    0.435E-01
DAV:   8    -0.503966975583E+03    0.14025E-03   -0.81430E-04 24520   0.116E-01    0.360E-01
DAV:   9    -0.503966889994E+03    0.85589E-04   -0.78997E-04 25288   0.111E-01    0.278E-01
DAV:  10    -0.503967064458E+03   -0.17446E-03   -0.14806E-03 22600   0.114E-01    0.258E-01
DAV:  11    -0.503967112583E+03   -0.48125E-04   -0.59035E-04 21632   0.725E-02    0.233E-01
DAV:  12    -0.503967063642E+03    0.48941E-04   -0.22138E-04 23696   0.630E-02    0.148E-01
DAV:  13    -0.503967118663E+03   -0.55021E-04   -0.33389E-04 15928   0.914E-02    0.100E-01
DAV:  14    -0.503967161049E+03   -0.42386E-04   -0.21385E-04 20720   0.381E-02    0.808E-02
DAV:  15    -0.503967155313E+03    0.57362E-05   -0.28384E-05 10880   0.249E-02
  12 F= -.50396716E+03 E0= -.50397286E+03  d E =-.833666E-01  mag=   107.7886
 curvature:  -9.76 expect dE=-0.237E+00 dE for cont linesearch -0.627E-01
 ZBRENT: increasing intervall
 opt :   7.4386  next Energy=  -504.093619 (dE=-0.210E+00)
 bond charge predicted
       N       E                     dE             d eps       ncg     rms          rms(c)
DAV:   1    -0.494380661079E+03    0.95865E+01   -0.14995E+03 16722   0.426E+01    0.701E+00
DAV:   2    -0.503869204930E+03   -0.94885E+01   -0.91088E+01 22356   0.113E+01    0.938E+00
DAV:   3    -0.504721959357E+03   -0.85275E+00   -0.97072E+00 26200   0.128E+01    0.115E+01
DAV:   4    -0.503986918460E+03    0.73504E+00   -0.15796E+00 26752   0.668E+00    0.339E+00
DAV:   5    -0.504026298040E+03   -0.39380E-01   -0.12510E-01 23072   0.174E+00    0.281E+00
DAV:   6    -0.504078094128E+03   -0.51796E-01   -0.84102E-02 22736   0.165E+00    0.199E+00
DAV:   7    -0.504104909586E+03   -0.26815E-01   -0.32693E-02 23656   0.708E-01    0.142E+00
DAV:   8    -0.504102433682E+03    0.24759E-02   -0.16760E-02 23991   0.661E-01    0.831E-01
DAV:   9    -0.504101868889E+03    0.56479E-03   -0.42789E-03 24832   0.269E-01    0.662E-01
DAV:  10    -0.504101782042E+03    0.86847E-04   -0.20702E-03 22016   0.157E-01    0.562E-01
DAV:  11    -0.504102654935E+03   -0.87289E-03   -0.65352E-03 24152   0.265E-01    0.539E-01
DAV:  12    -0.504102421354E+03    0.23358E-03   -0.26566E-03 21296   0.194E-01    0.418E-01
DAV:  13    -0.504102100430E+03    0.32092E-03   -0.98523E-04 26400   0.132E-01    0.259E-01
DAV:  14    -0.504102307058E+03   -0.20663E-03   -0.76103E-04 25552   0.125E-01    0.186E-01
DAV:  15    -0.504102518617E+03   -0.21156E-03   -0.44814E-04 21088   0.705E-02    0.155E-01
DAV:  16    -0.504102505317E+03    0.13300E-04   -0.15533E-04 20520   0.582E-02    0.105E-01
DAV:  17    -0.504102539323E+03   -0.34005E-04   -0.15546E-04 20608   0.447E-02    0.872E-02
DAV:  18    -0.504102563173E+03   -0.23851E-04   -0.99941E-05 18808   0.255E-02    0.802E-02
DAV:  19    -0.504102551916E+03    0.11257E-04   -0.33930E-05 10600   0.310E-02    0.510E-02
DAV:  20    -0.504102553753E+03   -0.18368E-05   -0.35907E-05 11144   0.266E-02
  13 F= -.50410255E+03 E0= -.50410862E+03  d E =-.218765E+00  mag=   107.6172
 curvature: -19.66 expect dE=-0.103E+01 dE for cont linesearch -0.160E+00
 ZBRENT: increasing intervall
 opt :  16.3650  next Energy=  -504.417385 (dE=-0.534E+00)
 bond charge predicted
       N       E                     dE             d eps       ncg     rms          rms(c)
DAV:   1    -0.432872322587E+03    0.71230E+02   -0.34155E+03 15630   0.696E+01    0.188E+01
DAV:   2    -0.502863429708E+03   -0.69991E+02   -0.65831E+02 18016   0.309E+01    0.294E+01
DAV:   3    -0.508376972885E+03   -0.55135E+01   -0.63939E+01 20624   0.371E+01    0.286E+01
DAV:   4    -0.504005585440E+03    0.43714E+01   -0.12643E+01 23600   0.218E+01    0.107E+01
DAV:   5    -0.503958062494E+03    0.47523E-01   -0.18261E+00 18652   0.601E+00    0.638E+00
DAV:   6    -0.504112427708E+03   -0.15437E+00   -0.56770E-01 25848   0.323E+00    0.606E+00
DAV:   7    -0.504230122318E+03   -0.11769E+00   -0.22056E-01 23128   0.274E+00    0.498E+00
DAV:   8    -0.504312136251E+03   -0.82014E-01   -0.17589E-01 22888   0.191E+00    0.289E+00
DAV:   9    -0.504328190152E+03   -0.16054E-01   -0.12187E-01 25936   0.181E+00    0.208E+00
DAV:  10    -0.504327866123E+03    0.32403E-03   -0.33241E-02 22568   0.660E-01    0.164E+00
DAV:  11    -0.504323175184E+03    0.46909E-02   -0.92332E-03 23376   0.430E-01    0.127E+00
DAV:  12    -0.504319655201E+03    0.35200E-02   -0.10492E-02 24800   0.358E-01    0.874E-01
DAV:  13    -0.504319112165E+03    0.54304E-03   -0.76882E-03 24144   0.327E-01    0.727E-01
DAV:  14    -0.504319642075E+03   -0.52991E-03   -0.61403E-03 23568   0.242E-01    0.621E-01
DAV:  15    -0.504319853102E+03   -0.21103E-03   -0.28470E-03 24712   0.230E-01    0.415E-01
DAV:  16    -0.504320729345E+03   -0.87624E-03   -0.25561E-03 25088   0.199E-01    0.311E-01
DAV:  17    -0.504321099113E+03   -0.36977E-03   -0.77826E-04 19288   0.921E-02    0.309E-01
DAV:  18    -0.504321030260E+03    0.68853E-04   -0.30800E-04 24584   0.873E-02    0.223E-01
DAV:  19    -0.504321114783E+03   -0.84522E-04   -0.79715E-04 25608   0.132E-01    0.157E-01
DAV:  20    -0.504321160700E+03   -0.45917E-04   -0.28942E-04 19832   0.544E-02    0.142E-01
DAV:  21    -0.504321177281E+03   -0.16581E-04   -0.84175E-05 19264   0.360E-02    0.123E-01
DAV:  22    -0.504321202905E+03   -0.25624E-04   -0.71423E-05 18464   0.313E-02    0.841E-02
DAV:  23    -0.504321199018E+03    0.38870E-05   -0.51642E-05 10832   0.413E-02
  14 F= -.50432120E+03 E0= -.50432661E+03  d E =-.437410E+00  mag=   107.4808
 curvature: -38.65 expect dE=-0.759E+01 dE for cont linesearch -0.169E-01
 ZBRENT: extrapolating
 opt :  19.0603  next Energy=  -504.331118 (dE=-0.447E+00)
 bond charge predicted
       N       E                     dE             d eps       ncg     rms          rms(c)
DAV:   1    -0.503473473106E+03    0.84773E+00   -0.39460E+02 16468   0.201E+01    0.334E+00
DAV:   2    -0.504248156594E+03   -0.77468E+00   -0.73157E+00 18400   0.441E+00    0.291E+00
DAV:   3    -0.504554702816E+03   -0.30655E+00   -0.10458E+00 27128   0.522E+00    0.705E+00
DAV:   4    -0.504273387321E+03    0.28132E+00   -0.64112E-01 27592   0.407E+00    0.182E+00
DAV:   5    -0.504309319610E+03   -0.35932E-01   -0.37101E-02 24752   0.894E-01    0.146E+00
DAV:   6    -0.504316609326E+03   -0.72897E-02   -0.30233E-02 24520   0.112E+00    0.874E-01
DAV:   7    -0.504316562672E+03    0.46655E-04   -0.90717E-03 23280   0.505E-01    0.462E-01
DAV:   8    -0.504316479290E+03    0.83381E-04   -0.23369E-03 22936   0.180E-01    0.400E-01
DAV:   9    -0.504316496945E+03   -0.17655E-04   -0.76433E-04 17664   0.976E-02    0.363E-01
DAV:  10    -0.504316385082E+03    0.11186E-03   -0.17259E-03 24216   0.155E-01    0.237E-01
DAV:  11    -0.504316482130E+03   -0.97048E-04   -0.85358E-04 21368   0.762E-02    0.207E-01
DAV:  12    -0.504316497054E+03   -0.14923E-04   -0.19783E-04 22464   0.628E-02    0.163E-01
DAV:  13    -0.504316632994E+03   -0.13594E-03   -0.30603E-04 23376   0.593E-02    0.988E-02
DAV:  14    -0.504316721533E+03   -0.88539E-04   -0.12874E-04 21032   0.455E-02    0.103E-01
DAV:  15    -0.504316722246E+03   -0.71304E-06   -0.52343E-05 15832   0.294E-02
  15 F= -.50431672E+03 E0= -.50432167E+03  d E =-.432934E+00  mag=   107.4675
 curvature: -22.64 expect dE=-0.578E+01 dE for cont linesearch -0.262E-01
 ZBRENT: bracketing found
 ZBRENT: interpolating
 opt :  17.3914  next Energy=  -504.324976 (dE=-0.441E+00)
 bond charge predicted
       N       E                     dE             d eps       ncg     rms          rms(c)
DAV:   1    -0.504069329579E+03    0.24739E+00   -0.12955E+02 16761   0.109E+01    0.204E+00
DAV:   2    -0.504292975766E+03   -0.22365E+00   -0.21247E+00 16462   0.236E+00    0.149E+00
DAV:   3    -0.504394621971E+03   -0.10165E+00   -0.30014E-01 27680   0.247E+00    0.384E+00
DAV:   4    -0.504311729308E+03    0.82893E-01   -0.26352E-01 27400   0.241E+00    0.120E+00
DAV:   5    -0.504325149628E+03   -0.13420E-01   -0.19275E-02 24392   0.722E-01    0.698E-01
DAV:   6    -0.504325632471E+03   -0.48284E-03   -0.83220E-03 23848   0.562E-01    0.421E-01
DAV:   7    -0.504325578792E+03    0.53679E-04   -0.26498E-03 23256   0.283E-01    0.283E-01
DAV:   8    -0.504325528952E+03    0.49840E-04   -0.64403E-04 19728   0.105E-01    0.242E-01
DAV:   9    -0.504325476253E+03    0.52699E-04   -0.19777E-04 23312   0.502E-02    0.214E-01
DAV:  10    -0.504325386988E+03    0.89265E-04   -0.54865E-04 21504   0.709E-02    0.139E-01
DAV:  11    -0.504325376366E+03    0.10623E-04   -0.34071E-04 23720   0.687E-02    0.107E-01
DAV:  12    -0.504325391553E+03   -0.15187E-04   -0.61870E-05 16184   0.288E-02    0.933E-02
DAV:  13    -0.504325439798E+03   -0.48244E-04   -0.85921E-05 19200   0.260E-02    0.553E-02
DAV:  14    -0.504325470158E+03   -0.30360E-04   -0.34614E-05 11112   0.275E-02    0.489E-02
DAV:  15    -0.504325480632E+03   -0.10474E-04   -0.28491E-05 12232   0.154E-02    0.456E-02
DAV:  16    -0.504325476618E+03    0.40144E-05   -0.11061E-05  8448   0.175E-02
  16 F= -.50432548E+03 E0= -.50433071E+03  d E =-.441688E+00  mag=   107.4749
 curvature:  -3.26 expect dE=-0.710E+00 dE for cont linesearch -0.269E-04
 trial: gam= 8.02340 g(F)=  0.218E+00 g(S)=  0.000E+00 ort = 0.101E-02 (trialstep = 0.615E-01)
 search vector abs. value=  0.819E+01
 bond charge predicted
       N       E                     dE             d eps       ncg     rms          rms(c)
DAV:   1    -0.504294176381E+03    0.31304E-01   -0.10608E+01 17431   0.270E+00    0.565E-01
DAV:   2    -0.504337097290E+03   -0.42921E-01   -0.42509E-01 18162   0.734E-01    0.385E-01
DAV:   3    -0.504347687210E+03   -0.10590E-01   -0.31461E-02 26952   0.875E-01    0.129E+00
DAV:   4    -0.504337593205E+03    0.10094E-01   -0.23960E-02 27376   0.752E-01    0.282E-01
DAV:   5    -0.504338325037E+03   -0.73183E-03   -0.93840E-04 24456   0.133E-01    0.244E-01
DAV:   6    -0.504338732915E+03   -0.40788E-03   -0.86909E-04 24584   0.185E-01    0.190E-01
DAV:   7    -0.504338622485E+03    0.11043E-03   -0.40327E-04 22800   0.109E-01    0.757E-02
DAV:   8    -0.504338620810E+03    0.16752E-05   -0.80623E-05 17840   0.299E-02
  17 F= -.50433862E+03 E0= -.50434379E+03  d E =-.131442E-01  mag=   107.4758
 ZBRENT: can't locate minimum, use default step
 trial-energy change:   -0.013144  1 .order   -0.013298   -0.013887   -0.012709
 step:   0.2459(harm=  0.7247)  dis= 0.10511  next Energy=  -504.407343 (dE=-0.819E-01)
 bond charge predicted
       N       E                     dE             d eps       ncg     rms          rms(c)
DAV:   1    -0.504179152428E+03    0.15947E+00   -0.10565E+02 17629   0.885E+00    0.148E+00
DAV:   2    -0.504351911175E+03   -0.17276E+00   -0.16830E+00 16940   0.187E+00    0.102E+00
DAV:   3    -0.504366269161E+03   -0.14358E-01   -0.72406E-02 26975   0.800E-01    0.117E+00
DAV:   4    -0.504372919989E+03   -0.66508E-02   -0.57860E-02 26696   0.123E+00    0.148E+00
DAV:   5    -0.504366610551E+03    0.63094E-02   -0.25613E-02 27008   0.767E-01    0.697E-01
DAV:   6    -0.504369136256E+03   -0.25257E-02   -0.50310E-03 26112   0.408E-01    0.447E-01
DAV:   7    -0.504368971899E+03    0.16436E-03   -0.30550E-03 22696   0.279E-01    0.235E-01
DAV:   8    -0.504368983997E+03   -0.12098E-04   -0.57620E-04 18984   0.776E-02    0.214E-01
DAV:   9    -0.504368967310E+03    0.16687E-04   -0.19262E-04 21016   0.509E-02    0.181E-01
DAV:  10    -0.504368969057E+03   -0.17471E-05   -0.34770E-04 22256   0.566E-02    0.122E-01
DAV:  11    -0.504369020064E+03   -0.51007E-04   -0.25437E-04 21952   0.435E-02    0.911E-02
DAV:  12    -0.504369056746E+03   -0.36683E-04   -0.67618E-05 16976   0.335E-02    0.781E-02
DAV:  13    -0.504369090414E+03   -0.33668E-04   -0.62743E-05 16960   0.278E-02    0.558E-02
DAV:  14    -0.504369103956E+03   -0.13542E-04   -0.23880E-05  9680   0.259E-02    0.398E-02
DAV:  15    -0.504369117367E+03   -0.13411E-04   -0.33579E-05 13392   0.133E-02    0.417E-02
DAV:  16    -0.504369117409E+03   -0.42441E-07   -0.92457E-06  8216   0.138E-02
  18 F= -.50436912E+03 E0= -.50437409E+03  d E =-.436408E-01  mag=   107.4679
 curvature:  -6.29 expect dE=-0.142E+01 dE for cont linesearch -0.117E-01
 ZBRENT: increasing intervall
 opt :   0.6147  next Energy=  -504.383990 (dE=-0.585E-01)
 bond charge predicted
       N       E                     dE             d eps       ncg     rms          rms(c)
DAV:   1    -0.503306345224E+03    0.10628E+01   -0.54473E+02 17595   0.222E+01    0.307E+00
DAV:   2    -0.504303278954E+03   -0.99693E+00   -0.97775E+00 17846   0.425E+00    0.219E+00
DAV:   3    -0.504544683637E+03   -0.24140E+00   -0.81197E-01 26744   0.406E+00    0.590E+00
DAV:   4    -0.504347157222E+03    0.19753E+00   -0.59916E-01 27240   0.366E+00    0.181E+00
DAV:   5    -0.504364712533E+03   -0.17555E-01   -0.36225E-02 25768   0.850E-01    0.143E+00
DAV:   6    -0.504374426922E+03   -0.97144E-02   -0.24062E-02 24408   0.993E-01    0.998E-01
DAV:   7    -0.504375813381E+03   -0.13865E-02   -0.11160E-02 22320   0.515E-01    0.492E-01
DAV:   8    -0.504375572123E+03    0.24126E-03   -0.22981E-03 23416   0.173E-01    0.383E-01
DAV:   9    -0.504375604900E+03   -0.32777E-04   -0.82208E-04 18384   0.971E-02    0.345E-01
DAV:  10    -0.504375613955E+03   -0.90543E-05   -0.13146E-03 22408   0.100E-01    0.254E-01
DAV:  11    -0.504375603640E+03    0.10315E-04   -0.73454E-04 23264   0.102E-01    0.184E-01
DAV:  12    -0.504375681120E+03   -0.77480E-04   -0.21808E-04 21160   0.485E-02    0.153E-01
DAV:  13    -0.504375792073E+03   -0.11095E-03   -0.18298E-04 22824   0.455E-02    0.105E-01
DAV:  14    -0.504375877024E+03   -0.84951E-04   -0.12997E-04 21120   0.376E-02    0.767E-02
DAV:  15    -0.504375900746E+03   -0.23722E-04   -0.28597E-05 11888   0.229E-02    0.657E-02
DAV:  16    -0.504375906151E+03   -0.54049E-05   -0.26580E-05 12040   0.206E-02
  19 F= -.50437591E+03 E0= -.50438054E+03  d E =-.504295E-01  mag=   107.4270
 curvature:  -7.98 expect dE=-0.189E+01 dE for cont linesearch -0.112E-01
 ZBRENT: bracketing found
 ZBRENT: interpolating
 opt :   0.4434  next Energy=  -504.385080 (dE=-0.596E-01)
 bond charge predicted
       N       E                     dE             d eps       ncg     rms          rms(c)
DAV:   1    -0.504234161089E+03    0.14174E+00   -0.90174E+01 17645   0.817E+00    0.142E+00
DAV:   2    -0.504375812727E+03   -0.14165E+00   -0.13265E+00 20160   0.201E+00    0.145E+00
DAV:   3    -0.504422989341E+03   -0.47177E-01   -0.24693E-01 26592   0.244E+00    0.293E+00
DAV:   4    -0.504376599620E+03    0.46390E-01   -0.10534E-01 26984   0.161E+00    0.824E-01
DAV:   5    -0.504379965484E+03   -0.33659E-02   -0.61346E-03 25368   0.418E-01    0.649E-01
DAV:   6    -0.504383409887E+03   -0.34444E-02   -0.58364E-03 22869   0.423E-01    0.395E-01
DAV:   7    -0.504383295400E+03    0.11449E-03   -0.18831E-03 22248   0.211E-01    0.209E-01
DAV:   8    -0.504383255131E+03    0.40269E-04   -0.37114E-04 22455   0.650E-02    0.173E-01
DAV:   9    -0.504383233050E+03    0.22081E-04   -0.13720E-04 17664   0.415E-02    0.151E-01
DAV:  10    -0.504383193385E+03    0.39665E-04   -0.38439E-04 22030   0.565E-02    0.882E-02
DAV:  11    -0.504383208707E+03   -0.15322E-04   -0.13140E-04 20184   0.344E-02    0.726E-02
DAV:  12    -0.504383220396E+03   -0.11689E-04   -0.17421E-05  9855   0.212E-02    0.659E-02
DAV:  13    -0.504383244528E+03   -0.24132E-04   -0.32865E-05 12864   0.184E-02    0.496E-02
DAV:  14    -0.504383257045E+03   -0.12517E-04   -0.21460E-05  9326   0.209E-02    0.293E-02
DAV:  15    -0.504383265900E+03   -0.88552E-05   -0.21749E-05  9672   0.109E-02
  20 F= -.50438327E+03 E0= -.50438805E+03  d E =-.577893E-01  mag=   107.4489
 curvature:  -6.55 expect dE=-0.151E+01 dE for cont linesearch -0.216E-03
 trial: gam= 0.05203 g(F)=  0.231E+00 g(S)=  0.000E+00 ort = 0.164E-01 (trialstep = 0.138E+00)
 search vector abs. value=  0.255E+00
 bond charge predicted
       N       E                     dE             d eps       ncg     rms          rms(c)
DAV:   1    -0.504408320946E+03   -0.25064E-01   -0.12197E+00 14788   0.166E+00    0.513E-01
DAV:   2    -0.504415106096E+03   -0.67852E-02   -0.41561E-02 23672   0.662E-01    0.745E-01
DAV:   3    -0.504414760844E+03    0.34525E-03   -0.20442E-02 23760   0.774E-01    0.702E-01
DAV:   4    -0.504413466463E+03    0.12944E-02   -0.51413E-03 24071   0.363E-01    0.357E-01
DAV:   5    -0.504414010197E+03   -0.54373E-03   -0.76497E-04 23336   0.176E-01    0.223E-01
DAV:   6    -0.504414529735E+03   -0.51954E-03   -0.72738E-04 22160   0.147E-01    0.128E-01
DAV:   7    -0.504414528103E+03    0.16321E-05   -0.15600E-04 21216   0.640E-02    0.779E-02
DAV:   8    -0.504414523605E+03    0.44979E-05   -0.31492E-05 12096   0.175E-02
  21 F= -.50441452E+03 E0= -.50441936E+03  d E =-.312577E-01  mag=   107.4451
 ZBRENT: can't locate minimum, use default step
 trial-energy change:   -0.031258  1 .order   -0.031372   -0.031961   -0.030784
 step:   0.5514(harm=  3.7417)  dis= 0.01702  next Energy=  -504.817008 (dE=-0.434E+00)
 bond charge predicted
       N       E                     dE             d eps       ncg     rms          rms(c)
DAV:   1    -0.504437612522E+03   -0.23084E-01   -0.10938E+01 14777   0.503E+00    0.155E+00
DAV:   2    -0.504508791590E+03   -0.71179E-01   -0.44957E-01 24024   0.204E+00    0.235E+00
DAV:   3    -0.504500511545E+03    0.82800E-02   -0.18999E-01 23344   0.236E+00    0.203E+00
DAV:   4    -0.504490957136E+03    0.95544E-02   -0.43122E-02 24191   0.104E+00    0.107E+00
DAV:   5    -0.504495246284E+03   -0.42891E-02   -0.67089E-03 23640   0.525E-01    0.691E-01
DAV:   6    -0.504500341285E+03   -0.50950E-02   -0.63220E-03 22464   0.426E-01    0.428E-01
DAV:   7    -0.504500178039E+03    0.16325E-03   -0.15784E-03 22534   0.210E-01    0.255E-01
DAV:   8    -0.504500120272E+03    0.57767E-04   -0.37372E-04 18000   0.558E-02    0.223E-01
DAV:   9    -0.504500047397E+03    0.72875E-04   -0.16598E-04 22896   0.483E-02    0.176E-01
DAV:  10    -0.504499992490E+03    0.54907E-04   -0.44431E-04 22032   0.665E-02    0.104E-01
DAV:  11    -0.504500024199E+03   -0.31708E-04   -0.10177E-04 18992   0.420E-02    0.109E-01
DAV:  12    -0.504500043487E+03   -0.19288E-04   -0.43788E-05 15008   0.263E-02    0.892E-02
DAV:  13    -0.504500045777E+03   -0.22905E-05   -0.39769E-05 10288   0.371E-02
  22 F= -.50450005E+03 E0= -.50450505E+03  d E =-.116780E+00  mag=   107.4384
 curvature:  -0.44 expect dE=-0.724E-01 dE for cont linesearch -0.642E-01
 ZBRENT: increasing intervall
 opt :   1.3786  next Energy=  -504.632533 (dE=-0.249E+00)
 bond charge predicted
       N       E                     dE             d eps       ncg     rms          rms(c)
DAV:   1    -0.504368810035E+03    0.13123E+00   -0.44024E+01 14761   0.101E+01    0.312E+00
DAV:   2    -0.504679934436E+03   -0.31112E+00   -0.19467E+00 24168   0.415E+00    0.490E+00
DAV:   3    -0.504627892290E+03    0.52042E-01   -0.76525E-01 22304   0.485E+00    0.392E+00
DAV:   4    -0.504597266678E+03    0.30626E-01   -0.16119E-01 23880   0.198E+00    0.211E+00
DAV:   5    -0.504613233397E+03   -0.15967E-01   -0.27535E-02 23448   0.108E+00    0.137E+00
DAV:   6    -0.504633870746E+03   -0.20637E-01   -0.24517E-02 22600   0.841E-01    0.841E-01
DAV:   7    -0.504633217772E+03    0.65297E-03   -0.61391E-03 22615   0.418E-01    0.466E-01
DAV:   8    -0.504633123642E+03    0.94130E-04   -0.14679E-03 19064   0.117E-01    0.411E-01
DAV:   9    -0.504632935478E+03    0.18816E-03   -0.40447E-04 22880   0.776E-02    0.347E-01
DAV:  10    -0.504632630708E+03    0.30477E-03   -0.11986E-03 21992   0.109E-01    0.213E-01
DAV:  11    -0.504632643240E+03   -0.12532E-04   -0.44791E-04 24192   0.870E-02    0.198E-01
DAV:  12    -0.504632720400E+03   -0.77160E-04   -0.14948E-04 19920   0.455E-02    0.183E-01
DAV:  13    -0.504632744611E+03   -0.24211E-04   -0.19337E-04 21824   0.656E-02    0.905E-02
DAV:  14    -0.504632757961E+03   -0.13350E-04   -0.82265E-05 10768   0.503E-02    0.606E-02
DAV:  15    -0.504632772727E+03   -0.14767E-04   -0.64852E-05 17032   0.206E-02    0.578E-02
DAV:  16    -0.504632767363E+03    0.53644E-05   -0.12263E-05  8384   0.204E-02
  23 F= -.50463277E+03 E0= -.50463804E+03  d E =-.249501E+00  mag=   107.3885
 curvature:  -0.92 expect dE=-0.879E-01 dE for cont linesearch -0.588E-01
 ZBRENT: increasing intervall
 opt :   3.0328  next Energy=  -504.738129 (dE=-0.355E+00)
 bond charge predicted
       N       E                     dE             d eps       ncg     rms          rms(c)
DAV:   1    -0.503898485556E+03    0.73429E+00   -0.18506E+02 15001   0.209E+01    0.624E+00
DAV:   2    -0.504791725299E+03   -0.89324E+00   -0.52367E+00 22944   0.753E+00    0.862E+00
DAV:   3    -0.504786723216E+03    0.50021E-02   -0.24449E+00 21248   0.951E+00    0.831E+00
DAV:   4    -0.504594757177E+03    0.19197E+00   -0.73645E-01 24952   0.419E+00    0.408E+00
DAV:   5    -0.504660910982E+03   -0.66154E-01   -0.10817E-01 24496   0.201E+00    0.284E+00
DAV:   6    -0.504742436992E+03   -0.81526E-01   -0.97973E-02 23168   0.177E+00    0.203E+00
DAV:   7    -0.504736541504E+03    0.58955E-02   -0.32960E-02 23032   0.975E-01    0.994E-01
DAV:   8    -0.504736076873E+03    0.46463E-03   -0.82874E-03 22784   0.299E-01    0.840E-01
DAV:   9    -0.504735334778E+03    0.74209E-03   -0.20226E-03 19384   0.180E-01    0.736E-01
DAV:  10    -0.504733619370E+03    0.17154E-02   -0.32590E-03 22368   0.196E-01    0.498E-01
DAV:  11    -0.504732958038E+03    0.66133E-03   -0.27520E-03 23344   0.179E-01    0.397E-01
DAV:  12    -0.504733247369E+03   -0.28933E-03   -0.65599E-04 22848   0.104E-01    0.394E-01
DAV:  13    -0.504733356866E+03   -0.10950E-03   -0.95597E-04 22304   0.137E-01    0.200E-01
DAV:  14    -0.504733380984E+03   -0.24118E-04   -0.40936E-04 24544   0.986E-02    0.114E-01
DAV:  15    -0.504733412884E+03   -0.31900E-04   -0.11950E-04 20272   0.397E-02    0.105E-01
DAV:  16    -0.504733419264E+03   -0.63805E-05   -0.55208E-05 15616   0.356E-02
  24 F= -.50473342E+03 E0= -.50473901E+03  d E =-.350153E+00  mag=   107.1895
 curvature:  -1.65 expect dE=-0.209E+00 dE for cont linesearch -0.846E-03
 trial: gam= 0.57565 g(F)=  0.127E+00 g(S)=  0.000E+00 ort =-0.114E-01 (trialstep = 0.717E+00)
 search vector abs. value=  0.198E+00
 bond charge predicted
       N       E                     dE             d eps       ncg     rms          rms(c)
DAV:   1    -0.504607737751E+03    0.12568E+00   -0.28576E+01 15283   0.874E+00    0.243E+00
DAV:   2    -0.504770336035E+03   -0.16260E+00   -0.14491E+00 15800   0.244E+00    0.179E+00
DAV:   3    -0.504841362774E+03   -0.71027E-01   -0.16513E-01 26856   0.203E+00    0.319E+00
DAV:   4    -0.504797926397E+03    0.43436E-01   -0.22313E-01 27488   0.234E+00    0.179E+00
DAV:   5    -0.504808990394E+03   -0.11064E-01   -0.27392E-02 26768   0.795E-01    0.115E+00
DAV:   6    -0.504811724074E+03   -0.27337E-02   -0.17316E-02 25248   0.834E-01    0.441E-01
DAV:   7    -0.504811927418E+03   -0.20334E-03   -0.45341E-03 21248   0.313E-01    0.295E-01
DAV:   8    -0.504811931197E+03   -0.37785E-05   -0.63522E-04 20976   0.767E-02    0.265E-01
DAV:   9    -0.504811867064E+03    0.64133E-04   -0.22416E-04 20000   0.566E-02    0.223E-01
DAV:  10    -0.504811802593E+03    0.64471E-04   -0.72958E-04 23824   0.940E-02    0.163E-01
DAV:  11    -0.504811801559E+03    0.10339E-05   -0.24416E-04 21648   0.453E-02    0.141E-01
DAV:  12    -0.504811793687E+03    0.78725E-05   -0.47212E-05 15256   0.340E-02
  25 F= -.50481179E+03 E0= -.50481771E+03  d E =-.783744E-01  mag=   107.1796
 ZBRENT: can't locate minimum, use default step
 trial-energy change:   -0.078374  1 .order   -0.078492   -0.086133   -0.070851
 step:   2.8674(harm=  4.0402)  dis= 0.05226  next Energy=  -504.976145 (dE=-0.243E+00)
 bond charge predicted
       N       E                     dE             d eps       ncg     rms          rms(c)
DAV:   1    -0.503349408761E+03    0.14624E+01   -0.28057E+02 15440   0.278E+01    0.764E+00
DAV:   2    -0.504631284596E+03   -0.12819E+01   -0.10746E+01 18366   0.822E+00    0.621E+00
DAV:   3    -0.506279836540E+03   -0.16486E+01   -0.40119E+00 27352   0.116E+01    0.159E+01
DAV:   4    -0.504732218231E+03    0.15476E+01   -0.28411E+00 27752   0.982E+00    0.459E+00
DAV:   5    -0.504869424745E+03   -0.13721E+00   -0.16305E-01 26648   0.207E+00    0.357E+00
DAV:   6    -0.504944644303E+03   -0.75220E-01   -0.18316E-01 24552   0.260E+00    0.190E+00
DAV:   7    -0.504947875511E+03   -0.32312E-02   -0.53521E-02 22728   0.119E+00    0.921E-01
DAV:   8    -0.504948474647E+03   -0.59914E-03   -0.95009E-03 17471   0.339E-01    0.820E-01
DAV:   9    -0.504948069839E+03    0.40481E-03   -0.21667E-03 23784   0.161E-01    0.730E-01
DAV:  10    -0.504946971230E+03    0.10986E-02   -0.33581E-03 22046   0.173E-01    0.514E-01
DAV:  11    -0.504946203404E+03    0.76783E-03   -0.30193E-03 23312   0.163E-01    0.388E-01
DAV:  12    -0.504946121293E+03    0.82111E-04   -0.69502E-04 22232   0.108E-01    0.337E-01
DAV:  13    -0.504946343880E+03   -0.22259E-03   -0.11389E-03 24544   0.127E-01    0.214E-01
DAV:  14    -0.504946645404E+03   -0.30152E-03   -0.62927E-04 22784   0.756E-02    0.158E-01
DAV:  15    -0.504946673037E+03   -0.27632E-04   -0.11282E-04 18712   0.470E-02    0.137E-01
DAV:  16    -0.504946664106E+03    0.89307E-05   -0.12230E-04 18760   0.573E-02    0.884E-02
DAV:  17    -0.504946694161E+03   -0.30055E-04   -0.18301E-04 23416   0.452E-02    0.852E-02
DAV:  18    -0.504946697028E+03   -0.28673E-05   -0.37430E-05 13816   0.235E-02
  26 F= -.50494670E+03 E0= -.50495328E+03  d E =-.213278E+00  mag=   107.1734
 curvature:  -2.91 expect dE=-0.139E+00 dE for cont linesearch -0.940E-02
 ZBRENT: extrapolating
 opt :   3.6061  next Energy=  -504.956030 (dE=-0.223E+00)
 bond charge predicted
       N       E                     dE             d eps       ncg     rms          rms(c)
DAV:   1    -0.504738642602E+03    0.20805E+00   -0.30324E+01 15195   0.907E+00    0.250E+00
DAV:   2    -0.504913986430E+03   -0.17534E+00   -0.15597E+00 16024   0.258E+00    0.189E+00
DAV:   3    -0.505043314704E+03   -0.12933E+00   -0.32791E-01 26632   0.290E+00    0.446E+00
DAV:   4    -0.504935899652E+03    0.10742E+00   -0.34892E-01 27736   0.291E+00    0.170E+00
DAV:   5    -0.504952106908E+03   -0.16207E-01   -0.23729E-02 26768   0.757E-01    0.121E+00
DAV:   6    -0.504956893330E+03   -0.47864E-02   -0.21550E-02 24880   0.912E-01    0.545E-01
DAV:   7    -0.504956641493E+03    0.25184E-03   -0.56175E-03 22072   0.366E-01    0.308E-01
DAV:   8    -0.504956657789E+03   -0.16295E-04   -0.84964E-04 19848   0.874E-02    0.276E-01
DAV:   9    -0.504956595228E+03    0.62561E-04   -0.26509E-04 19472   0.601E-02    0.239E-01
DAV:  10    -0.504956482911E+03    0.11232E-03   -0.86356E-04 23392   0.990E-02    0.161E-01
DAV:  11    -0.504956478356E+03    0.45547E-05   -0.25522E-04 21528   0.470E-02    0.139E-01
DAV:  12    -0.504956483182E+03   -0.48265E-05   -0.36894E-05 14184   0.312E-02
  27 F= -.50495648E+03 E0= -.50496316E+03  d E =-.223064E+00  mag=   107.1580
 curvature:  -2.89 expect dE=-0.165E+00 dE for cont linesearch -0.215E-04
 trial: gam= 0.24219 g(F)=  0.572E-01 g(S)=  0.000E+00 ort = 0.121E-02 (trialstep = 0.129E+01)
 search vector abs. value=  0.694E-01
 bond charge predicted
       N       E                     dE             d eps       ncg     rms          rms(c)
DAV:   1    -0.504779720386E+03    0.17676E+00   -0.27286E+01 14929   0.112E+01    0.296E+00
DAV:   2    -0.505027456658E+03   -0.24774E+00   -0.17617E+00 21350   0.421E+00    0.397E+00
DAV:   3    -0.505080962622E+03   -0.53506E-01   -0.85283E-01 24512   0.479E+00    0.478E+00
DAV:   4    -0.504983937064E+03    0.97026E-01   -0.27297E-01 25407   0.258E+00    0.191E+00
DAV:   5    -0.505000028619E+03   -0.16092E-01   -0.25459E-02 24776   0.962E-01    0.147E+00
DAV:   6    -0.505016905251E+03   -0.16877E-01   -0.36464E-02 22720   0.102E+00    0.709E-01
DAV:   7    -0.505016800529E+03    0.10472E-03   -0.61674E-03 20408   0.353E-01    0.481E-01
DAV:   8    -0.505016388638E+03    0.41189E-03   -0.12050E-03 24600   0.142E-01    0.375E-01
DAV:   9    -0.505016114009E+03    0.27463E-03   -0.69906E-04 20024   0.810E-02    0.310E-01
DAV:  10    -0.505015834546E+03    0.27946E-03   -0.11780E-03 22680   0.106E-01    0.196E-01
DAV:  11    -0.505015828957E+03    0.55883E-05   -0.36230E-04 23832   0.621E-02    0.176E-01
DAV:  12    -0.505015856873E+03   -0.27916E-04   -0.10399E-04 19872   0.458E-02    0.144E-01
DAV:  13    -0.505015948150E+03   -0.91277E-04   -0.30265E-04 22928   0.594E-02    0.683E-02
DAV:  14    -0.505015985818E+03   -0.37668E-04   -0.54174E-05 16024   0.268E-02    0.623E-02
DAV:  15    -0.505015991827E+03   -0.60087E-05   -0.16861E-05  9280   0.178E-02
  28 F= -.50501599E+03 E0= -.50502311E+03  d E =-.595086E-01  mag=   107.2568
 trial-energy change:   -0.059509  1 .order   -0.059334   -0.074388   -0.044280
 step:   3.0543(harm=  3.1988)  dis= 0.05098  next Energy=  -505.046519 (dE=-0.900E-01)
 bond charge predicted
       N       E                     dE             d eps       ncg     rms          rms(c)
DAV:   1    -0.504604242716E+03    0.41174E+00   -0.50375E+01 14881   0.152E+01    0.408E+00
DAV:   2    -0.505068183447E+03   -0.46394E+00   -0.33334E+00 21166   0.586E+00    0.534E+00
DAV:   3    -0.505202591509E+03   -0.13441E+00   -0.16088E+00 24960   0.669E+00    0.678E+00
DAV:   4    -0.504990019471E+03    0.21257E+00   -0.55556E-01 25879   0.377E+00    0.262E+00
DAV:   5    -0.505017927634E+03   -0.27908E-01   -0.46248E-02 24808   0.127E+00    0.201E+00
DAV:   6    -0.505050059760E+03   -0.32132E-01   -0.60367E-02 22533   0.130E+00    0.903E-01
DAV:   7    -0.505051311410E+03   -0.12516E-02   -0.10327E-02 20528   0.442E-01    0.655E-01
DAV:   8    -0.505050862650E+03    0.44876E-03   -0.18614E-03 23712   0.187E-01    0.532E-01
DAV:   9    -0.505050399814E+03    0.46284E-03   -0.99810E-04 23560   0.104E-01    0.431E-01
DAV:  10    -0.505049717412E+03    0.68240E-03   -0.16860E-03 22696   0.133E-01    0.302E-01
DAV:  11    -0.505049592556E+03    0.12486E-03   -0.82794E-04 22544   0.918E-02    0.248E-01
DAV:  12    -0.505049604061E+03   -0.11505E-04   -0.28163E-04 23472   0.750E-02    0.189E-01
DAV:  13    -0.505049745386E+03   -0.14133E-03   -0.46222E-04 22664   0.732E-02    0.985E-02
DAV:  14    -0.505049815200E+03   -0.69814E-04   -0.12116E-04 20624   0.394E-02    0.818E-02
DAV:  15    -0.505049824856E+03   -0.96566E-05   -0.24179E-05 10712   0.249E-02
  29 F= -.50504982E+03 E0= -.50505746E+03  d E =-.933417E-01  mag=   107.3254
 curvature:  -1.92 expect dE=-0.266E-01 dE for cont linesearch -0.250E-03
 ZBRENT: extrapolating
 opt :   3.2236  next Energy=  -505.050079 (dE=-0.936E-01)
 bond charge predicted
       N       E                     dE             d eps       ncg     rms          rms(c)
DAV:   1    -0.505046209611E+03    0.36056E-02   -0.46606E-01 14878   0.145E+00    0.386E-01
DAV:   2    -0.505049227387E+03   -0.30178E-02   -0.26221E-02 15996   0.434E-01    0.319E-01
DAV:   3    -0.505052270861E+03   -0.30435E-02   -0.95096E-03 24248   0.525E-01    0.723E-01
DAV:   4    -0.505049587157E+03    0.26837E-02   -0.87897E-03 24392   0.462E-01    0.280E-01
DAV:   5    -0.505049846296E+03   -0.25914E-03   -0.47041E-04 23592   0.105E-01    0.181E-01
DAV:   6    -0.505050152626E+03   -0.30633E-03   -0.58258E-04 23463   0.137E-01    0.120E-01
DAV:   7    -0.505050145424E+03    0.72025E-05   -0.15617E-04 19344   0.616E-02    0.714E-02
DAV:   8    -0.505050146847E+03   -0.14230E-05   -0.23701E-05  9656   0.243E-02
  30 F= -.50505015E+03 E0= -.50505780E+03  d E =-.936637E-01  mag=   107.3308
 curvature:  -1.96 expect dE=-0.297E-01 dE for cont linesearch -0.237E-04
 trial: gam= 0.26388 g(F)=  0.152E-01 g(S)=  0.000E+00 ort = 0.916E-03 (trialstep = 0.168E+01)
 search vector abs. value=  0.205E-01
 bond charge predicted
       N       E                     dE             d eps       ncg     rms          rms(c)
DAV:   1    -0.504952872514E+03    0.97273E-01   -0.14016E+01 14989   0.754E+00    0.198E+00
DAV:   2    -0.505053282140E+03   -0.10041E+00   -0.78136E-01 17306   0.225E+00    0.213E+00
DAV:   3    -0.505089423102E+03   -0.36141E-01   -0.26592E-01 22168   0.274E+00    0.304E+00
DAV:   4    -0.505054816190E+03    0.34607E-01   -0.11784E-01 25680   0.162E+00    0.105E+00
DAV:   5    -0.505070881242E+03   -0.16065E-01   -0.18285E-02 23961   0.588E-01    0.917E-01
DAV:   6    -0.505069575486E+03    0.13058E-02   -0.75854E-03 22776   0.440E-01    0.390E-01
DAV:   7    -0.505069354426E+03    0.22106E-03   -0.19287E-03 24944   0.197E-01    0.271E-01
DAV:   8    -0.505069352671E+03    0.17550E-05   -0.75681E-04 18552   0.140E-01    0.259E-01
DAV:   9    -0.505069213903E+03    0.13877E-03   -0.28955E-04 23344   0.714E-02    0.208E-01
DAV:  10    -0.505069034510E+03    0.17939E-03   -0.76723E-04 22192   0.771E-02    0.129E-01
DAV:  11    -0.505069042913E+03   -0.84031E-05   -0.22053E-04 23688   0.570E-02    0.131E-01
DAV:  12    -0.505069062171E+03   -0.19258E-04   -0.83360E-05 20080   0.361E-02    0.991E-02
DAV:  13    -0.505069085758E+03   -0.23587E-04   -0.75561E-05 18784   0.350E-02    0.503E-02
DAV:  14    -0.505069104197E+03   -0.18440E-04   -0.38053E-05 13128   0.185E-02    0.416E-02
DAV:  15    -0.505069105102E+03   -0.90421E-06   -0.92336E-06  8848   0.149E-02
  31 F= -.50506911E+03 E0= -.50507686E+03  d E =-.189583E-01  mag=   107.2926
 trial-energy change:   -0.018958  1 .order   -0.018651   -0.025944   -0.011357
 step:   2.7636(harm=  2.9890)  dis= 0.02829  next Energy=  -505.072848 (dE=-0.227E-01)
 bond charge predicted
       N       E                     dE             d eps       ncg     rms          rms(c)
DAV:   1    -0.505026031352E+03    0.43073E-01   -0.58241E+00 14965   0.488E+00    0.127E+00
DAV:   2    -0.505067819328E+03   -0.41788E-01   -0.31932E-01 17822   0.148E+00    0.141E+00
DAV:   3    -0.505080025001E+03   -0.12206E-01   -0.11072E-01 22192   0.177E+00    0.189E+00
DAV:   4    -0.505067656166E+03    0.12369E-01   -0.41563E-02 25024   0.978E-01    0.668E-01
DAV:   5    -0.505073832571E+03   -0.61764E-02   -0.61348E-03 22998   0.313E-01    0.518E-01
DAV:   6    -0.505074444794E+03   -0.61222E-03   -0.19089E-03 23792   0.273E-01    0.425E-01
DAV:   7    -0.505073620423E+03    0.82437E-03   -0.18760E-03 24320   0.267E-01    0.182E-01
DAV:   8    -0.505073652405E+03   -0.31982E-04   -0.28527E-04 21624   0.569E-02    0.161E-01
DAV:   9    -0.505073627379E+03    0.25026E-04   -0.98462E-05 19048   0.359E-02    0.132E-01
DAV:  10    -0.505073575135E+03    0.52244E-04   -0.32799E-04 23032   0.499E-02    0.831E-02
DAV:  11    -0.505073586630E+03   -0.11495E-04   -0.57252E-05 15504   0.293E-02    0.847E-02
DAV:  12    -0.505073609270E+03   -0.22639E-04   -0.41037E-05 14736   0.197E-02    0.749E-02
DAV:  13    -0.505073613003E+03   -0.37335E-05   -0.61692E-05 15272   0.385E-02
  32 F= -.50507361E+03 E0= -.50508137E+03  d E =-.234662E-01  mag=   107.2608
 curvature:  -1.93 expect dE=-0.887E-02 dE for cont linesearch -0.152E-03
 ZBRENT: extrapolating
 opt :   3.0148  next Energy=  -505.073773 (dE=-0.236E-01)
 bond charge predicted
       N       E                     dE             d eps       ncg     rms          rms(c)
DAV:   1    -0.505071266421E+03    0.23428E-02   -0.31348E-01 14961   0.112E+00    0.298E-01
DAV:   2    -0.505073373027E+03   -0.21066E-02   -0.16312E-02 17470   0.339E-01    0.313E-01
DAV:   3    -0.505074296197E+03   -0.92317E-03   -0.62745E-03 23104   0.418E-01    0.475E-01
DAV:   4    -0.505073415413E+03    0.88078E-03   -0.27648E-03 24008   0.253E-01    0.156E-01
DAV:   5    -0.505073750421E+03   -0.33501E-03   -0.32847E-04 22840   0.735E-02    0.118E-01
DAV:   6    -0.505073798701E+03   -0.48279E-04   -0.11240E-04 20080   0.728E-02    0.105E-01
DAV:   7    -0.505073750552E+03    0.48149E-04   -0.10163E-04 13400   0.639E-02    0.458E-02
DAV:   8    -0.505073758820E+03   -0.82675E-05   -0.22925E-05 10624   0.150E-02
  33 F= -.50507376E+03 E0= -.50508152E+03  d E =-.236120E-01  mag=   107.2542
 curvature:  -2.02 expect dE=-0.107E-01 dE for cont linesearch -0.519E-06
 trial: gam= 0.32913 g(F)=  0.528E-02 g(S)=  0.000E+00 ort = 0.725E-04 (trialstep = 0.195E+01)
 search vector abs. value=  0.755E-02
 bond charge predicted
       N       E                     dE             d eps       ncg     rms          rms(c)
DAV:   1    -0.505014506508E+03    0.59244E-01   -0.81572E+00 15579   0.556E+00    0.135E+00
DAV:   2    -0.505069984166E+03   -0.55478E-01   -0.51036E-01 15648   0.151E+00    0.971E-01
DAV:   3    -0.505087745032E+03   -0.17761E-01   -0.48569E-02 25256   0.110E+00    0.162E+00
DAV:   4    -0.505077967529E+03    0.97775E-02   -0.65742E-02 25224   0.128E+00    0.104E+00
DAV:   5    -0.505079529755E+03   -0.15622E-02   -0.89933E-03 26232   0.442E-01    0.630E-01
DAV:   6    -0.505081130534E+03   -0.16008E-02   -0.51698E-03 26032   0.455E-01    0.327E-01
DAV:   7    -0.505081216199E+03   -0.85666E-04   -0.18929E-03 22360   0.221E-01    0.185E-01
DAV:   8    -0.505081198310E+03    0.17889E-04   -0.29935E-04 22752   0.540E-02    0.171E-01
DAV:   9    -0.505081110586E+03    0.87723E-04   -0.21690E-04 22528   0.593E-02    0.126E-01
DAV:  10    -0.505081040244E+03    0.70342E-04   -0.25283E-04 23184   0.589E-02    0.897E-02
DAV:  11    -0.505081046896E+03   -0.66521E-05   -0.59218E-05 15312   0.292E-02
  34 F= -.50508105E+03 E0= -.50508887E+03  d E =-.728808E-02  mag=   107.2428
 trial-energy change:   -0.007288  1 .order   -0.007463   -0.010320   -0.004606
 step:   4.8393(harm=  3.5174)  dis= 0.01938  next Energy=  -505.083894 (dE=-0.101E-01)
 bond charge predicted
       N       E                     dE             d eps       ncg     rms          rms(c)
DAV:   1    -0.504930604760E+03    0.15044E+00   -0.17982E+01 15539   0.824E+00    0.201E+00
DAV:   2    -0.505056987228E+03   -0.12638E+00   -0.11616E+00 15640   0.227E+00    0.148E+00
DAV:   3    -0.505128389481E+03   -0.71402E-01   -0.19826E-01 25720   0.227E+00    0.330E+00
DAV:   4    -0.505068811666E+03    0.59578E-01   -0.20010E-01 26104   0.223E+00    0.133E+00
DAV:   5    -0.505077499692E+03   -0.86880E-02   -0.13682E-02 26000   0.562E-01    0.964E-01
DAV:   6    -0.505080917344E+03   -0.34177E-02   -0.13427E-02 24904   0.739E-01    0.518E-01
DAV:   7    -0.505080984775E+03   -0.67431E-04   -0.41116E-03 22144   0.327E-01    0.295E-01
DAV:   8    -0.505080918137E+03    0.66638E-04   -0.73147E-04 23632   0.897E-02    0.260E-01
DAV:   9    -0.505080759314E+03    0.15882E-03   -0.48590E-04 21056   0.895E-02    0.200E-01
DAV:  10    -0.505080616536E+03    0.14278E-03   -0.57953E-04 23760   0.853E-02    0.138E-01
DAV:  11    -0.505080623703E+03   -0.71667E-05   -0.15379E-04 21512   0.438E-02    0.133E-01
DAV:  12    -0.505080611050E+03    0.12653E-04   -0.71223E-05 17640   0.344E-02    0.956E-02
DAV:  13    -0.505080655192E+03   -0.44142E-04   -0.22489E-04 23600   0.513E-02    0.594E-02
DAV:  14    -0.505080663964E+03   -0.87721E-05   -0.29868E-05 12416   0.187E-02
  35 F= -.50508066E+03 E0= -.50508847E+03  d E =-.690514E-02  mag=   107.2242
 curvature:  -0.73 expect dE=-0.314E-02 dE for cont linesearch -0.695E-03
 ZBRENT: interpolating
 opt :   3.3027  next Energy=  -505.082650 (dE=-0.889E-02)
 bond charge predicted
       N       E                     dE             d eps       ncg     rms          rms(c)
DAV:   1    -0.505041900661E+03    0.38755E-01   -0.50806E+00 15555   0.437E+00    0.105E+00
DAV:   2    -0.505075868791E+03   -0.33968E-01   -0.31380E-01 15592   0.120E+00    0.756E-01
DAV:   3    -0.505079155028E+03   -0.32862E-02   -0.11017E-02 22280   0.398E-01    0.665E-01
DAV:   4    -0.505091124598E+03   -0.11970E-01   -0.35963E-02 26760   0.885E-01    0.142E+00
DAV:   5    -0.505082395342E+03    0.87293E-02   -0.43861E-02 26888   0.101E+00    0.596E-01
DAV:   6    -0.505082661569E+03   -0.26623E-03   -0.55119E-03 27240   0.435E-01    0.279E-01
DAV:   7    -0.505082741820E+03   -0.80251E-04   -0.12293E-03 22760   0.177E-01    0.137E-01
DAV:   8    -0.505082735939E+03    0.58810E-05   -0.24430E-04 17192   0.521E-02    0.124E-01
DAV:   9    -0.505082689110E+03    0.46829E-04   -0.44801E-05 14264   0.326E-02    0.106E-01
DAV:  10    -0.505082616590E+03    0.72520E-04   -0.19951E-04 22184   0.424E-02    0.762E-02
DAV:  11    -0.505082592699E+03    0.23891E-04   -0.71729E-05 16952   0.257E-02    0.573E-02
DAV:  12    -0.505082584272E+03    0.84270E-05   -0.22296E-05  9048   0.231E-02
  36 F= -.50508258E+03 E0= -.50509042E+03  d E =-.882545E-02  mag=   107.2436
 curvature:  -1.68 expect dE=-0.257E-02 dE for cont linesearch -0.542E-05
 trial: gam= 0.29198 g(F)=  0.153E-02 g(S)=  0.000E+00 ort =-0.156E-03 (trialstep = 0.222E+01)
 search vector abs. value=  0.208E-02
 bond charge predicted
       N       E                     dE             d eps       ncg     rms          rms(c)
DAV:   1    -0.505063683097E+03    0.18910E-01   -0.26241E+00 15186   0.318E+00    0.826E-01
DAV:   2    -0.505081823470E+03   -0.18140E-01   -0.14692E-01 17320   0.983E-01    0.841E-01
DAV:   3    -0.505091843059E+03   -0.10020E-01   -0.53668E-02 24080   0.122E+00    0.144E+00
DAV:   4    -0.505082209851E+03    0.96332E-02   -0.30852E-02 25808   0.844E-01    0.519E-01
DAV:   5    -0.505083963101E+03   -0.17533E-02   -0.20192E-03 25680   0.249E-01    0.390E-01
DAV:   6    -0.505085141360E+03   -0.11783E-02   -0.34075E-03 24967   0.347E-01    0.297E-01
DAV:   7    -0.505084765432E+03    0.37593E-03   -0.11726E-03 22920   0.182E-01    0.114E-01
DAV:   8    -0.505084769667E+03   -0.42351E-05   -0.19112E-04 20120   0.440E-02    0.101E-01
DAV:   9    -0.505084746381E+03    0.23286E-04   -0.53762E-05 14976   0.329E-02    0.834E-02
DAV:  10    -0.505084705662E+03    0.40719E-04   -0.15367E-04 21120   0.355E-02    0.472E-02
DAV:  11    -0.505084706617E+03   -0.95506E-06   -0.24919E-05 10352   0.197E-02
  37 F= -.50508471E+03 E0= -.50509253E+03  d E =-.212234E-02  mag=   107.2501
 trial-energy change:   -0.002122  1 .order   -0.002153   -0.003287   -0.001019
 step:   3.2158(harm=  3.2158)  dis= 0.00665  next Energy=  -505.084967 (dE=-0.238E-02)
 bond charge predicted
       N       E                     dE             d eps       ncg     rms          rms(c)
DAV:   1    -0.505080719869E+03    0.39858E-02   -0.53109E-01 15179   0.143E+00    0.373E-01
DAV:   2    -0.505083923150E+03   -0.32033E-02   -0.28341E-02 15598   0.389E-01    0.279E-01
DAV:   3    -0.505084399011E+03   -0.47586E-03   -0.10744E-03 23848   0.145E-01    0.240E-01
DAV:   4    -0.505085802594E+03   -0.14036E-02   -0.35272E-03 26576   0.317E-01    0.458E-01
DAV:   5    -0.505084754321E+03    0.10483E-02   -0.45177E-03 23720   0.316E-01    0.222E-01
DAV:   6    -0.505084876767E+03   -0.12245E-03   -0.40906E-04 24856   0.897E-02    0.917E-02
DAV:   7    -0.505084869799E+03    0.69682E-05   -0.11258E-04 19343   0.557E-02    0.634E-02
DAV:   8    -0.505084869867E+03   -0.68751E-07   -0.24287E-05 10816   0.184E-02
  38 F= -.50508487E+03 E0= -.50509268E+03  d E =-.228560E-02  mag=   107.2534
 curvature:  -2.26 expect dE=-0.109E-02 dE for cont linesearch -0.289E-06
 trial: gam= 0.29768 g(F)=  0.482E-03 g(S)=  0.000E+00 ort = 0.163E-04 (trialstep = 0.242E+01)
 search vector abs. value=  0.676E-03
 bond charge predicted
       N       E                     dE             d eps       ncg     rms          rms(c)
DAV:   1    -0.505078898327E+03    0.59715E-02   -0.88852E-01 14825   0.180E+00    0.525E-01
DAV:   2    -0.505083704370E+03   -0.48060E-02   -0.37726E-02 15810   0.499E-01    0.450E-01
DAV:   3    -0.505090229408E+03   -0.65250E-02   -0.20376E-02 25120   0.730E-01    0.105E+00
DAV:   4    -0.505084468113E+03    0.57613E-02   -0.17952E-02 27376   0.630E-01    0.312E-01
DAV:   5    -0.505085529961E+03   -0.10618E-02   -0.11699E-03 25192   0.154E-01    0.213E-01
DAV:   6    -0.505085659189E+03   -0.12923E-03   -0.68084E-04 24832   0.174E-01    0.165E-01
DAV:   7    -0.505085549642E+03    0.10955E-03   -0.34748E-04 22336   0.106E-01    0.787E-02
DAV:   8    -0.505085554282E+03   -0.46396E-05   -0.55736E-05 15640   0.234E-02
  39 F= -.50508555E+03 E0= -.50509342E+03  d E =-.684414E-03  mag=   107.2495
 trial-energy change:   -0.000684  1 .order   -0.000801   -0.001177   -0.000425
 step:   3.7815(harm=  3.7815)  dis= 0.00435  next Energy=  -505.085791 (dE=-0.921E-03)
 bond charge predicted
       N       E                     dE             d eps       ncg     rms          rms(c)
DAV:   1    -0.505083438764E+03    0.21109E-02   -0.28247E-01 14825   0.102E+00    0.300E-01
DAV:   2    -0.505084875514E+03   -0.14368E-02   -0.11889E-02 15422   0.268E-01    0.235E-01
DAV:   3    -0.505085246537E+03   -0.37102E-03   -0.49676E-04 24791   0.795E-02    0.197E-01
DAV:   4    -0.505086684173E+03   -0.14376E-02   -0.42511E-03 26112   0.310E-01    0.485E-01
DAV:   5    -0.505085505347E+03    0.11788E-02   -0.40667E-03 21144   0.314E-01    0.131E-01
DAV:   6    -0.505085512646E+03   -0.72994E-05   -0.28100E-04 23840   0.882E-02    0.746E-02
DAV:   7    -0.505085510308E+03    0.23381E-05   -0.62436E-05 16664   0.374E-02
  40 F= -.50508551E+03 E0= -.50509339E+03  d E =-.640440E-03  mag=   107.2466
 curvature:  -2.63 expect dE=-0.508E-03 dE for cont linesearch -0.821E-05
 ZBRENT: interpolating
 opt :   3.4985  next Energy=  -505.085517 (dE=-0.647E-03)
 bond charge predicted
       N       E                     dE             d eps       ncg     rms          rms(c)
DAV:   1    -0.505085424246E+03    0.88400E-04   -0.12206E-02 14707   0.211E-01    0.840E-02
DAV:   2    -0.505085500008E+03   -0.75762E-04   -0.55139E-04 16012   0.608E-02    0.724E-02
DAV:   3    -0.505085652097E+03   -0.15209E-03   -0.44055E-04 12392   0.108E-01    0.167E-01
DAV:   4    -0.505085504550E+03    0.14755E-03   -0.40700E-04 11192   0.103E-01    0.560E-02
DAV:   5    -0.505085523221E+03   -0.18671E-04   -0.32693E-05 11368   0.382E-02    0.444E-02
DAV:   6    -0.505085520169E+03    0.30517E-05   -0.21877E-05 11648   0.227E-02
  41 F= -.50508552E+03 E0= -.50509338E+03  d E =-.650302E-03  mag=   107.2473
 curvature:  -2.08 expect dE=-0.357E-03 dE for cont linesearch -0.274E-05
 trial: gam= 0.37639 g(F)=  0.172E-03 g(S)=  0.000E+00 ort =-0.299E-04 (trialstep = 0.263E+01)
 search vector abs. value=  0.245E-03
 bond charge predicted
       N       E                     dE             d eps       ncg     rms          rms(c)
DAV:   1    -0.505082134023E+03    0.33892E-02   -0.41785E-01 15269   0.129E+00    0.365E-01
DAV:   2    -0.505084780655E+03   -0.26466E-02   -0.22164E-02 15570   0.334E-01    0.273E-01
DAV:   3    -0.505085630598E+03   -0.84994E-03   -0.15156E-03 26927   0.168E-01    0.310E-01
DAV:   4    -0.505085933972E+03   -0.30337E-03   -0.42275E-03 26312   0.316E-01    0.356E-01
DAV:   5    -0.505085709210E+03    0.22476E-03   -0.16177E-03 25128   0.194E-01    0.802E-02
DAV:   6    -0.505085751940E+03   -0.42730E-04   -0.17346E-04 21368   0.505E-02    0.527E-02
DAV:   7    -0.505085751407E+03    0.53304E-06   -0.14946E-05  9832   0.213E-02
  42 F= -.50508575E+03 E0= -.50509364E+03  d E =-.231237E-03  mag=   107.2489
 trial-energy change:   -0.000231  1 .order   -0.000281   -0.000423   -0.000139
 step:   3.9222(harm=  3.9222)  dis= 0.00343  next Energy=  -505.085835 (dE=-0.315E-03)
 bond charge predicted
       N       E                     dE             d eps       ncg     rms          rms(c)
DAV:   1    -0.505084886336E+03    0.86560E-03   -0.99932E-02 15264   0.633E-01    0.182E-01
DAV:   2    -0.505085544270E+03   -0.65793E-03   -0.53364E-03 15816   0.177E-01    0.168E-01
DAV:   3    -0.505086113474E+03   -0.56920E-03   -0.21284E-03 24336   0.235E-01    0.325E-01
DAV:   4    -0.505085619697E+03    0.49378E-03   -0.17526E-03 17064   0.209E-01    0.125E-01
DAV:   5    -0.505085724678E+03   -0.10498E-03   -0.18780E-04 18032   0.843E-02    0.944E-02
DAV:   6    -0.505085732356E+03   -0.76783E-05   -0.11924E-04 22352   0.584E-02    0.554E-02
DAV:   7    -0.505085734728E+03   -0.23718E-05   -0.18061E-05  9920   0.208E-02
  43 F= -.50508573E+03 E0= -.50509365E+03  d E =-.214559E-03  mag=   107.2495
 curvature:  -2.99 expect dE=-0.277E-03 dE for cont linesearch -0.337E-05
 trial: gam= 0.41313 g(F)=  0.924E-04 g(S)=  0.000E+00 ort =-0.166E-04 (trialstep = 0.289E+01)
 search vector abs. value=  0.120E-03
 reached required accuracy - stopping structural energy minimisation
 PROFILE, used timers:     231
