<?xml version="1.0" encoding="ISO-8859-1"?>
<modeling>
 <generator>
  <i name="program" type="string">vasp </i>
  <i name="version" type="string">6.3.2  </i>
  <i name="subversion" type="string">27Jun22 (build Mar 15 2023 15:45:48) complex                          parallel </i>
  <i name="platform" type="string">LinuxIFC </i>
  <i name="date" type="string">2025 02 09 </i>
  <i name="time" type="string">23:30:47 </i>
 </generator>
 <incar>
  <i type="string" name="SYSTEM">ni3al</i>
  <i type="int" name="ISTART">     1</i>
  <i type="string" name="PREC">Accurate</i>
  <i type="string" name="ALGO">Normal</i>
  <i type="int" name="ISPIN">     2</i>
  <i type="int" name="IMIX">     4</i>
  <i name="AMIX">      0.05000000</i>
  <i name="BMIX">      0.00010000</i>
  <i name="AMIN">      0.01000000</i>
  <i type="int" name="ICHARG">     1</i>
  <i type="int" name="NELM">   150</i>
  <i type="int" name="IBRION">     2</i>
  <i name="EDIFF">      0.00001000</i>
  <i name="EDIFFG">     -0.02000000</i>
  <i type="int" name="NSW">   300</i>
  <i type="int" name="ISIF">     2</i>
  <i name="ENCUT">    450.00000000</i>
  <i type="string" name="LREAL">Auto</i>
  <i type="int" name="ISMEAR">     1</i>
  <i name="SIGMA">      0.15000000</i>
  <i type="int" name="LMAXMIX">     4</i>
  <i type="logical" name="LWAVE"> F  </i>
  <i type="logical" name="LCHARG"> F  </i>
  <i type="logical" name="LDIPOL"> T  </i>
  <i type="int" name="IDIPOL">     3</i>
 </incar>
 <primitive_cell>
  <structure name="primitive_cell" >
   <crystal>
    <varray name="basis" >
     <v>       8.53269958       0.00000000       0.00000000 </v>
     <v>      -0.00051933       8.49699972       0.00000000 </v>
     <v>       0.00000000       0.00000000      23.59499931 </v>
    </varray>
    <i name="volume">   1710.69280467 </i>
    <varray name="rec_basis" >
     <v>       0.11719620       0.00000716       0.00000000 </v>
     <v>       0.00000000       0.11768860       0.00000000 </v>
     <v>       0.00000000       0.00000000       0.04238186 </v>
    </varray>
   </crystal>
   <varray name="positions" >
    <v>       0.00086000       0.99993000       0.24271000 </v>
    <v>       0.16615160       0.16511008       0.30347168 </v>
    <v>       0.50665875       0.17101846       0.30449006 </v>
    <v>       0.66822000       0.00107000       0.24272000 </v>
    <v>       0.83369059       0.17159554       0.30349425 </v>
    <v>       0.00044000       0.33497000       0.24240000 </v>
    <v>       0.16637229       0.50100932       0.30416942 </v>
    <v>       0.33469000       0.33305000       0.24267000 </v>
    <v>       0.50417829       0.49833863       0.30292644 </v>
    <v>       0.82946616       0.49883706       0.30295867 </v>
    <v>       0.16855964       0.83458073       0.30469043 </v>
    <v>       0.33342000       0.66555000       0.24261000 </v>
    <v>       0.83582244       0.83262335       0.30368920 </v>
    <v>       0.00064000       0.00119000       0.00199000 </v>
    <v>       0.99643848       0.00394148       0.36126548 </v>
    <v>       0.16843000       0.16962000       0.06269000 </v>
    <v>       0.33460000       0.00297000       0.00254000 </v>
    <v>       0.33732413       0.00662429       0.36201239 </v>
    <v>       0.50463000       0.16850000       0.06120000 </v>
    <v>       0.83272000       0.16670000       0.06193000 </v>
    <v>       0.00004000       0.33467000       0.00213000 </v>
    <v>       0.00490451       0.33221797       0.36068329 </v>
    <v>       0.16757000       0.49895000       0.06268000 </v>
    <v>       0.50099000       0.49896000       0.06206000 </v>
    <v>       0.83393000       0.50234000       0.06235000 </v>
    <v>       0.00121000       0.66785000       0.00188000 </v>
    <v>       0.99553919       0.66398904       0.36014185 </v>
    <v>       0.16792000       0.83462000       0.06228000 </v>
    <v>       0.33437000       0.66664000       0.00225000 </v>
    <v>       0.33915947       0.66201745       0.36149755 </v>
    <v>       0.50152000       0.83563000       0.06217000 </v>
    <v>       0.66753000       0.66705000       0.00175000 </v>
    <v>       0.66272101       0.67309315       0.36099833 </v>
    <v>       0.83293000       0.83584000       0.06235000 </v>
    <v>       0.00121000       0.00098000       0.12225000 </v>
    <v>       0.16700000       0.16811000       0.18239000 </v>
    <v>       0.33470000       0.00227000       0.12192000 </v>
    <v>       0.50174000       0.16716000       0.18263000 </v>
    <v>       0.83421000       0.16639000       0.18283000 </v>
    <v>       0.16964000       0.49868000       0.18209000 </v>
    <v>       0.50219000       0.50081000       0.18317000 </v>
    <v>       0.66741000       0.33395000       0.12233000 </v>
    <v>       0.83134000       0.50253000       0.18283000 </v>
    <v>       0.00132000       0.66795000       0.12253000 </v>
    <v>       0.16898000       0.83509000       0.18243000 </v>
    <v>       0.33446000       0.66703000       0.12223000 </v>
    <v>       0.49971000       0.83538000       0.18278000 </v>
    <v>       0.66698000       0.66840000       0.12259000 </v>
    <v>       0.83488000       0.83403000       0.18294000 </v>
    <v>       0.33558000       0.99863000       0.24353000 </v>
    <v>       0.66801000       0.33262000       0.24229000 </v>
    <v>       0.00448000       0.66739000       0.24217000 </v>
    <v>       0.49635414       0.83421436       0.30120319 </v>
    <v>       0.66521000       0.67351000       0.24327000 </v>
    <v>       0.66620000       0.99680000       0.00000000 </v>
    <v>       0.66783683       0.99448462       0.36260661 </v>
    <v>       0.33213000       0.33386000       0.00135000 </v>
    <v>       0.33100801       0.33263928       0.36350500 </v>
    <v>       0.67040000       0.33673000       0.00321000 </v>
    <v>       0.66728000       0.99998000       0.12246000 </v>
    <v>       0.99806000       0.33495000       0.12235000 </v>
    <v>       0.33675000       0.33238000       0.12261000 </v>
    <v>       0.50666000       0.17102000       0.42000000 </v>
   </varray>
  </structure>
  <varray name="primitive_index" >
   <v type="int" >        1 </v>
   <v type="int" >        2 </v>
   <v type="int" >        3 </v>
   <v type="int" >        4 </v>
   <v type="int" >        5 </v>
   <v type="int" >        6 </v>
   <v type="int" >        7 </v>
   <v type="int" >        8 </v>
   <v type="int" >        9 </v>
   <v type="int" >       10 </v>
   <v type="int" >       11 </v>
   <v type="int" >       12 </v>
   <v type="int" >       13 </v>
   <v type="int" >       14 </v>
   <v type="int" >       15 </v>
   <v type="int" >       16 </v>
   <v type="int" >       17 </v>
   <v type="int" >       18 </v>
   <v type="int" >       19 </v>
   <v type="int" >       20 </v>
   <v type="int" >       21 </v>
   <v type="int" >       22 </v>
   <v type="int" >       23 </v>
   <v type="int" >       24 </v>
   <v type="int" >       25 </v>
   <v type="int" >       26 </v>
   <v type="int" >       27 </v>
   <v type="int" >       28 </v>
   <v type="int" >       29 </v>
   <v type="int" >       30 </v>
   <v type="int" >       31 </v>
   <v type="int" >       32 </v>
   <v type="int" >       33 </v>
   <v type="int" >       34 </v>
   <v type="int" >       35 </v>
   <v type="int" >       36 </v>
   <v type="int" >       37 </v>
   <v type="int" >       38 </v>
   <v type="int" >       39 </v>
   <v type="int" >       40 </v>
   <v type="int" >       41 </v>
   <v type="int" >       42 </v>
   <v type="int" >       43 </v>
   <v type="int" >       44 </v>
   <v type="int" >       45 </v>
   <v type="int" >       46 </v>
   <v type="int" >       47 </v>
   <v type="int" >       48 </v>
   <v type="int" >       49 </v>
   <v type="int" >       50 </v>
   <v type="int" >       51 </v>
   <v type="int" >       52 </v>
   <v type="int" >       53 </v>
   <v type="int" >       54 </v>
   <v type="int" >       55 </v>
   <v type="int" >       56 </v>
   <v type="int" >       57 </v>
   <v type="int" >       58 </v>
   <v type="int" >       59 </v>
   <v type="int" >       60 </v>
   <v type="int" >       61 </v>
   <v type="int" >       62 </v>
   <v type="int" >       63 </v>
  </varray>
 </primitive_cell>
 <kpoints>
  <generation param="Gamma">
   <v type="int" name="divisions">       4        4        1 </v>
   <v name="usershift">      0.00000000       0.00000000       0.00000000 </v>
   <v name="genvec1">      0.25000000       0.00000000       0.00000000 </v>
   <v name="genvec2">      0.00000000       0.25000000       0.00000000 </v>
   <v name="genvec3">      0.00000000       0.00000000       1.00000000 </v>
   <v name="shift">      0.00000000       0.00000000       0.00000000 </v>
  </generation>
  <varray name="kpointlist" >
   <v>       0.00000000       0.00000000       0.00000000 </v>
   <v>       0.25000000       0.00000000       0.00000000 </v>
   <v>       0.50000000       0.00000000       0.00000000 </v>
   <v>       0.00000000       0.25000000       0.00000000 </v>
   <v>       0.25000000       0.25000000       0.00000000 </v>
   <v>       0.50000000       0.25000000       0.00000000 </v>
   <v>      -0.25000000       0.25000000       0.00000000 </v>
   <v>       0.00000000       0.50000000       0.00000000 </v>
   <v>       0.25000000       0.50000000       0.00000000 </v>
   <v>       0.50000000       0.50000000       0.00000000 </v>
  </varray>
  <varray name="weights" >
   <v>       0.06250000 </v>
   <v>       0.12500000 </v>
   <v>       0.06250000 </v>
   <v>       0.12500000 </v>
   <v>       0.12500000 </v>
   <v>       0.12500000 </v>
   <v>       0.12500000 </v>
   <v>       0.06250000 </v>
   <v>       0.12500000 </v>
   <v>       0.06250000 </v>
  </varray>
 </kpoints>
 <parameters>
  <separator name="general" >
   <i type="string" name="SYSTEM">ni3al</i>
   <i type="logical" name="LCOMPAT"> F  </i>
  </separator>
  <separator name="electronic" >
   <i type="string" name="PREC">accura</i>
   <i name="ENMAX">    450.00000000</i>
   <i name="ENAUG">    519.42400000</i>
   <i name="EDIFF">      0.00001000</i>
   <i type="int" name="IALGO">    38</i>
   <i type="int" name="IWAVPR">    11</i>
   <i type="int" name="NBANDS">   369</i>
   <i type="int" name="NBANDSLOW">    -1</i>
   <i type="int" name="NBANDSHIGH">    -1</i>
   <i name="NELECT">    562.00000000</i>
   <i type="int" name="TURBO">     0</i>
   <i type="int" name="IRESTART">     0</i>
   <i type="int" name="NREBOOT">     0</i>
   <i type="int" name="NMIN">     0</i>
   <i name="EREF">      0.00000000</i>
   <separator name="electronic smearing" >
    <i type="int" name="ISMEAR">     1</i>
    <i name="SIGMA">      0.15000000</i>
    <i name="KSPACING">      0.50000000</i>
    <i type="logical" name="KGAMMA"> T  </i>
    <i type="logical" name="KBLOWUP"> T  </i>
   </separator>
   <separator name="electronic projectors" >
    <i type="logical" name="LREAL"> T  </i>
    <v name="ROPT">     -0.00025000     -0.00025000     -0.00025000</v>
    <i type="int" name="LMAXPAW">  -100</i>
    <i type="int" name="LMAXMIX">     4</i>
    <i type="logical" name="NLSPLINE"> F  </i>
   </separator>
   <separator name="electronic startup" >
    <i type="int" name="ISTART">     0</i>
    <i type="int" name="ICHARG">     1</i>
    <i type="int" name="INIWAV">     1</i>
   </separator>
   <separator name="electronic spin" >
    <i type="int" name="ISPIN">     2</i>
    <i type="logical" name="LNONCOLLINEAR"> F  </i>
    <v name="MAGMOM">      1.00000000      1.00000000      1.00000000      1.00000000      1.00000000      1.00000000      1.00000000      1.00000000      1.00000000      1.00000000      1.00000000      1.00000000      1.00000000      1.00000000      1.00000000      1.00000000      1.00000000      1.00000000      1.00000000      1.00000000
      1.00000000      1.00000000      1.00000000      1.00000000      1.00000000      1.00000000      1.00000000      1.00000000      1.00000000      1.00000000      1.00000000      1.00000000      1.00000000      1.00000000      1.00000000      1.00000000      1.00000000      1.00000000      1.00000000      1.00000000
      1.00000000      1.00000000      1.00000000      1.00000000      1.00000000      1.00000000      1.00000000      1.00000000      1.00000000      1.00000000      1.00000000      1.00000000      1.00000000      1.00000000      1.00000000      1.00000000      1.00000000      1.00000000      1.00000000      1.00000000
      1.00000000      1.00000000      1.00000000</v>
    <i name="NUPDOWN">     -1.00000000</i>
    <i type="logical" name="LSORBIT"> F  </i>
    <v name="SAXIS">      0.00000000      0.00000000      1.00000000</v>
    <i type="logical" name="LSPIRAL"> F  </i>
    <v name="QSPIRAL">      0.00000000      0.00000000      0.00000000</v>
    <i type="logical" name="LZEROZ"> F  </i>
   </separator>
   <separator name="electronic exchange-correlation" >
    <i type="logical" name="LASPH"> F  </i>
    <i type="logical" name="LMETAGGA"> F  </i>
   </separator>
   <separator name="electronic convergence" >
    <i type="int" name="NELM">   150</i>
    <i type="int" name="NELMDL">     0</i>
    <i type="int" name="NELMIN">     2</i>
    <i name="ENINI">    450.00000000</i>
    <separator name="electronic convergence detail" >
     <i type="logical" name="LDIAG"> T  </i>
     <i type="logical" name="LSUBROT"> F  </i>
     <i name="WEIMIN">      0.00100000</i>
     <i name="EBREAK">      0.00000001</i>
     <i name="DEPER">      0.30000000</i>
     <i type="int" name="NRMM">     4</i>
     <i name="TIME">      0.40000000</i>
    </separator>
   </separator>
   <separator name="electronic mixer" >
    <i name="AMIX">      0.05000000</i>
    <i name="BMIX">      0.00010000</i>
    <i name="AMIN">      0.01000000</i>
    <i name="AMIX_MAG">      0.20000000</i>
    <i name="BMIX_MAG">      0.00010000</i>
    <separator name="electronic mixer details" >
     <i type="int" name="IMIX">     4</i>
     <i type="logical" name="MIXFIRST"> F  </i>
     <i type="int" name="MAXMIX">   -45</i>
     <i name="WC">    100.00000000</i>
     <i type="int" name="INIMIX">     1</i>
     <i type="int" name="MIXPRE">     1</i>
     <i type="int" name="MREMOVE">     5</i>
    </separator>
   </separator>
   <separator name="electronic dipolcorrection" >
    <i type="logical" name="LDIPOL"> T  </i>
    <i type="logical" name="LMONO"> F  </i>
    <i type="int" name="IDIPOL">     3</i>
    <i name="EPSILON">      1.00000000</i>
    <v name="DIPOL">   -100.00000000   -100.00000000   -100.00000000</v>
    <i name="EFIELD">      0.00000000</i>
   </separator>
  </separator>
  <separator name="grids" >
   <i type="int" name="NGX">    60</i>
   <i type="int" name="NGY">    60</i>
   <i type="int" name="NGZ">   168</i>
   <i type="int" name="NGXF">   120</i>
   <i type="int" name="NGYF">   120</i>
   <i type="int" name="NGZF">   336</i>
   <i type="logical" name="ADDGRID"> F  </i>
  </separator>
  <separator name="ionic" >
   <i type="int" name="NSW">   300</i>
   <i type="int" name="IBRION">     2</i>
   <i type="int" name="MDALGO">     0</i>
   <i type="int" name="ISIF">     2</i>
   <i name="PSTRESS">      0.00000000</i>
   <i name="EDIFFG">     -0.02000000</i>
   <i type="int" name="NFREE">     1</i>
   <i name="POTIM">      0.50000000</i>
   <i name="SMASS">     -3.00000000</i>
   <i name="SCALEE">      1.00000000</i>
  </separator>
  <separator name="ionic md" >
   <i name="TEBEG">      0.00010000</i>
   <i name="TEEND">      0.00010000</i>
   <i type="int" name="NBLOCK">     1</i>
   <i type="int" name="KBLOCK">   300</i>
   <i type="int" name="NPACO">   256</i>
   <i name="APACO">     10.00000000</i>
  </separator>
  <separator name="symmetry" >
   <i type="int" name="ISYM">     2</i>
   <i name="SYMPREC">      0.00001000</i>
  </separator>
  <separator name="dos" >
   <i type="int" name="LORBIT">     0</i>
   <v name="RWIGS">     -1.00000000     -1.00000000     -1.00000000</v>
   <i type="int" name="NEDOS">   301</i>
   <i name="EMIN">     10.00000000</i>
   <i name="EMAX">    -10.00000000</i>
   <i name="EFERMI">      0.00000000</i>
  </separator>
  <separator name="writing" >
   <i type="int" name="NWRITE">     2</i>
   <i type="logical" name="LWAVE"> F  </i>
   <i type="logical" name="LDOWNSAMPLE"> F  </i>
   <i type="logical" name="LCHARG"> F  </i>
   <i type="logical" name="LPARD"> F  </i>
   <i type="logical" name="LVTOT"> F  </i>
   <i type="logical" name="LVHAR"> F  </i>
   <i type="logical" name="LELF"> F  </i>
   <i type="logical" name="LOPTICS"> F  </i>
   <v name="STM">      0.00000000      0.00000000      0.00000000      0.00000000      0.00000000      0.00000000      0.00000000</v>
  </separator>
  <separator name="performance" >
   <i type="int" name="NPAR">     1</i>
   <i type="int" name="NSIM">     4</i>
   <i type="int" name="NBLK">    -1</i>
   <i type="logical" name="LPLANE"> T  </i>
   <i type="logical" name="LSCALAPACK"> T  </i>
   <i type="logical" name="LSCAAWARE"> F  </i>
   <i type="logical" name="LSCALU"> F  </i>
   <i type="logical" name="LASYNC"> F  </i>
   <i type="logical" name="LORBITALREAL"> F  </i>
  </separator>
  <separator name="miscellaneous" >
   <i type="int" name="IDIOT">     3</i>
   <i type="int" name="PHON_NSTRUCT">    -1</i>
   <i type="logical" name="LMUSIC"> F  </i>
   <v name="POMASS">     55.84700000     51.99600000    207.20000000</v>
   <v name="DARWINR">      0.00000000      0.00000000      0.00000000</v>
   <v name="DARWINV">      1.00000000      1.00000000      1.00000000</v>
   <i type="logical" name="LCORR"> T  </i>
  </separator>
  <i type="logical" name="GGA_COMPAT"> T  </i>
  <i type="logical" name="LBERRY"> F  </i>
  <i type="int" name="ICORELEVEL">     0</i>
  <i type="logical" name="LDAU"> F  </i>
  <i type="int" name="I_CONSTRAINED_M">     0</i>
  <separator name="electronic exchange-correlation" >
   <i type="string" name="GGA">--</i>
   <i type="int" name="VOSKOWN">     0</i>
   <i type="logical" name="LHFCALC"> F  </i>
   <i type="string" name="PRECFOCK"></i>
   <i type="logical" name="LSYMGRAD"> F  </i>
   <i type="logical" name="LHFONE"> F  </i>
   <i type="logical" name="LRHFCALC"> F  </i>
   <i type="logical" name="LTHOMAS"> F  </i>
   <i type="logical" name="LMODELHF"> F  </i>
   <i type="logical" name="LFOCKACE"> F  </i>
   <i name="ENCUT4O">     -1.00000000</i>
   <i type="int" name="EXXOEP">     0</i>
   <i type="int" name="FOURORBIT">     0</i>
   <i name="AEXX">      0.00000000</i>
   <i name="HFALPHA">      0.00000000</i>
   <i name="MCALPHA">      0.00000000</i>
   <i name="ALDAX">      1.00000000</i>
   <i name="AGGAX">      1.00000000</i>
   <i name="ALDAC">      1.00000000</i>
   <i name="AGGAC">      1.00000000</i>
   <i type="int" name="NKREDX">     1</i>
   <i type="int" name="NKREDY">     1</i>
   <i type="int" name="NKREDZ">     1</i>
   <i type="logical" name="SHIFTRED"> F  </i>
   <i type="logical" name="ODDONLY"> F  </i>
   <i type="logical" name="EVENONLY"> F  </i>
   <i type="int" name="LMAXFOCK">     0</i>
   <i type="int" name="NMAXFOCKAE">     0</i>
   <i type="logical" name="LFOCKAEDFT"> F  </i>
   <i name="HFSCREEN">      0.00000000</i>
   <i name="HFSCREENC">      0.00000000</i>
   <i type="int" name="NBANDSGWLOW">     0</i>
  </separator>
  <separator name="vdW DFT" >
   <i type="logical" name="LUSE_VDW"> F  </i>
   <i name="Zab_VDW">     -0.84910000</i>
   <i name="PARAM1">      0.12340000</i>
   <i name="PARAM2">      1.00000000</i>
   <i name="PARAM3">      0.00000000</i>
  </separator>
  <separator name="model GW" >
   <i type="int" name="MODEL_GW">     0</i>
   <i name="MODEL_EPS0">     16.29231243</i>
   <i name="MODEL_ALPHA">      1.00000000</i>
  </separator>
  <separator name="linear response parameters" >
   <i type="logical" name="LEPSILON"> F  </i>
   <i type="logical" name="LRPA"> F  </i>
   <i type="logical" name="LNABLA"> F  </i>
   <i type="logical" name="LVEL"> F  </i>
   <i name="CSHIFT">      0.10000000</i>
   <i name="OMEGAMAX">     -1.00000000</i>
   <i name="DEG_THRESHOLD">      0.00200000</i>
   <i name="RTIME">     -0.10000000</i>
   <i name="WPLASMAI">      0.00000000</i>
   <v name="DFIELD">      0.00000000      0.00000000      0.00000000</v>
   <v name="WPLASMA">      0.00000000      0.00000000      0.00000000      0.00000000      0.00000000      0.00000000      0.00000000      0.00000000      0.00000000</v>
  </separator>
  <separator name="orbital magnetization" >
   <i type="logical" name="NUCIND"> F  </i>
   <v name="MAGPOS">      0.00000000      0.00000000      0.00000000</v>
   <i type="logical" name="LNICSALL"> T  </i>
   <i type="logical" name="ORBITALMAG"> F  </i>
   <i type="logical" name="LMAGBLOCH"> F  </i>
   <i type="logical" name="LCHIMAG"> F  </i>
   <i type="logical" name="LGAUGE"> T  </i>
   <i type="int" name="MAGATOM">     0</i>
   <v name="MAGDIPOL">      0.00000000      0.00000000      0.00000000</v>
   <v name="AVECCONST">      0.00000000      0.00000000      0.00000000</v>
  </separator>
  <separator name="response functions" >
   <i type="logical" name="LFINITE_TEMPERATURE"> F  </i>
   <i type="logical" name="LADDER"> F  </i>
   <i type="logical" name="LRPAFORCE"> F  </i>
   <i type="logical" name="LFXC"> F  </i>
   <i type="logical" name="LHARTREE"> T  </i>
   <i type="int" name="IBSE">     0</i>
   <v type="int" name="KPOINT">    -1     0     0     0</v>
   <i type="logical" name="LTCTC"> F  </i>
   <i type="logical" name="LTCTE"> F  </i>
   <i type="logical" name="LTETE"> F  </i>
   <i type="logical" name="LTRIPLET"> F  </i>
   <i type="logical" name="LFXCEPS"> F  </i>
   <i type="logical" name="LFXHEG"> F  </i>
   <i type="int" name="NATURALO">     2</i>
   <i type="logical" name="LHOLEGF"> F  </i>
   <i type="logical" name="L2ORDER"> F  </i>
   <i type="logical" name="LDMP1"> F  </i>
   <i type="logical" name="LMP2LT"> F  </i>
   <i type="logical" name="LSMP2LT"> F  </i>
   <i type="logical" name="LGWLF"> F  </i>
   <i name="ENCUTGW">     -2.00000000</i>
   <i name="ENCUTGWSOFT">     -2.00000000</i>
   <i name="ENCUTLF">     -1.00000000</i>
   <i type="logical" name="LESF_SPLINES"> F  </i>
   <i type="int" name="LMAXMP2">    -1</i>
   <i name="SCISSOR">      0.00000000</i>
   <i type="int" name="NOMEGA">     0</i>
   <i type="int" name="NOMEGAR">     0</i>
   <i type="int" name="NBANDSGW">    -1</i>
   <i type="int" name="NBANDSO">    -1</i>
   <i type="int" name="NBANDSV">    -1</i>
   <i type="int" name="NELMGW">     1</i>
   <i type="int" name="NELMHF">     1</i>
   <i type="int" name="DIM">     3</i>
   <i type="int" name="IESPILON">     4</i>
   <i type="int" name="ANTIRES">     0</i>
   <i name="OMEGAMAX">    -30.00000000</i>
   <i name="OMEGAMIN">    -30.00000000</i>
   <i name="OMEGATL">   -200.00000000</i>
   <i type="int" name="OMEGAGRID">     0</i>
   <i name="CSHIFT">     -0.10000000</i>
   <i type="logical" name="LSELFENERGY"> F  </i>
   <i type="logical" name="LSPECTRAL"> F  </i>
   <i type="logical" name="LSPECTRALGW"> F  </i>
   <i type="logical" name="LSINGLES"> F  </i>
   <i type="logical" name="LFERMIGW"> F  </i>
   <i type="logical" name="ODDONLYGW"> F  </i>
   <i type="logical" name="EVENONLYGW"> F  </i>
   <i type="int" name="NKREDLFX">     1</i>
   <i type="int" name="NKREDLFY">     1</i>
   <i type="int" name="NKREDLFZ">     1</i>
   <i type="int" name="MAXMEM">  2800</i>
   <i type="int" name="TELESCOPE">     0</i>
   <i type="int" name="NTAUPAR">    -1</i>
   <i type="int" name="NOMEGAPAR">    -1</i>
   <i name="DAMP_NEWTON">      0.80000001</i>
   <i name="LAMBDA">      1.00000000</i>
  </separator>
  <separator name="External order field" >
   <i name="OFIELD_KAPPA">      0.00000000</i>
   <v name="OFIELD_K">      0.00000000      0.00000000      0.00000000</v>
   <i name="OFIELD_Q6_NEAR">      0.00000000</i>
   <i name="OFIELD_Q6_FAR">      0.00000000</i>
   <i name="OFIELD_A">      0.00000000</i>
  </separator>
  <separator name="optional k-points parameters" >
   <i type="int" name="KPOINTS_OPT_MODE">     1</i>
   <i type="logical" name="LKPOINTS_OPT"> F  </i>
  </separator>
  <separator name="solvation model" >
   <i type="logical" name="LSOL"> F  </i>
  </separator>
 </parameters>
 <atominfo>
  <atoms>      63 </atoms>
  <types>       3 </types>
  <array name="atoms" >
   <dimension dim="1">ion</dimension>
   <field type="string">element</field>
   <field type="int">atomtype</field>
   <set>
    <rc><c>Fe</c><c>   1</c></rc>
    <rc><c>Fe</c><c>   1</c></rc>
    <rc><c>Fe</c><c>   1</c></rc>
    <rc><c>Fe</c><c>   1</c></rc>
    <rc><c>Fe</c><c>   1</c></rc>
    <rc><c>Fe</c><c>   1</c></rc>
    <rc><c>Fe</c><c>   1</c></rc>
    <rc><c>Fe</c><c>   1</c></rc>
    <rc><c>Fe</c><c>   1</c></rc>
    <rc><c>Fe</c><c>   1</c></rc>
    <rc><c>Fe</c><c>   1</c></rc>
    <rc><c>Fe</c><c>   1</c></rc>
    <rc><c>Fe</c><c>   1</c></rc>
    <rc><c>Fe</c><c>   1</c></rc>
    <rc><c>Fe</c><c>   1</c></rc>
    <rc><c>Fe</c><c>   1</c></rc>
    <rc><c>Fe</c><c>   1</c></rc>
    <rc><c>Fe</c><c>   1</c></rc>
    <rc><c>Fe</c><c>   1</c></rc>
    <rc><c>Fe</c><c>   1</c></rc>
    <rc><c>Fe</c><c>   1</c></rc>
    <rc><c>Fe</c><c>   1</c></rc>
    <rc><c>Fe</c><c>   1</c></rc>
    <rc><c>Fe</c><c>   1</c></rc>
    <rc><c>Fe</c><c>   1</c></rc>
    <rc><c>Fe</c><c>   1</c></rc>
    <rc><c>Fe</c><c>   1</c></rc>
    <rc><c>Fe</c><c>   1</c></rc>
    <rc><c>Fe</c><c>   1</c></rc>
    <rc><c>Fe</c><c>   1</c></rc>
    <rc><c>Fe</c><c>   1</c></rc>
    <rc><c>Fe</c><c>   1</c></rc>
    <rc><c>Fe</c><c>   1</c></rc>
    <rc><c>Fe</c><c>   1</c></rc>
    <rc><c>Fe</c><c>   1</c></rc>
    <rc><c>Fe</c><c>   1</c></rc>
    <rc><c>Fe</c><c>   1</c></rc>
    <rc><c>Fe</c><c>   1</c></rc>
    <rc><c>Fe</c><c>   1</c></rc>
    <rc><c>Fe</c><c>   1</c></rc>
    <rc><c>Fe</c><c>   1</c></rc>
    <rc><c>Fe</c><c>   1</c></rc>
    <rc><c>Fe</c><c>   1</c></rc>
    <rc><c>Fe</c><c>   1</c></rc>
    <rc><c>Fe</c><c>   1</c></rc>
    <rc><c>Fe</c><c>   1</c></rc>
    <rc><c>Fe</c><c>   1</c></rc>
    <rc><c>Fe</c><c>   1</c></rc>
    <rc><c>Fe</c><c>   1</c></rc>
    <rc><c>Cr</c><c>   2</c></rc>
    <rc><c>Cr</c><c>   2</c></rc>
    <rc><c>Cr</c><c>   2</c></rc>
    <rc><c>Cr</c><c>   2</c></rc>
    <rc><c>Cr</c><c>   2</c></rc>
    <rc><c>Cr</c><c>   2</c></rc>
    <rc><c>Cr</c><c>   2</c></rc>
    <rc><c>Cr</c><c>   2</c></rc>
    <rc><c>Cr</c><c>   2</c></rc>
    <rc><c>Cr</c><c>   2</c></rc>
    <rc><c>Cr</c><c>   2</c></rc>
    <rc><c>Cr</c><c>   2</c></rc>
    <rc><c>Cr</c><c>   2</c></rc>
    <rc><c>Pb</c><c>   3</c></rc>
   </set>
  </array>
  <array name="atomtypes" >
   <dimension dim="1">type</dimension>
   <field type="int">atomspertype</field>
   <field type="string">element</field>
   <field>mass</field>
   <field>valence</field>
   <field type="string">pseudopotential</field>
   <set>
    <rc><c>  49</c><c>Fe</c><c>     55.84700000</c><c>      8.00000000</c><c>  PAW_PBE Fe 06Sep2000                  </c></rc>
    <rc><c>  13</c><c>Cr</c><c>     51.99600000</c><c>     12.00000000</c><c>  PAW_PBE Cr_pv 02Aug2007               </c></rc>
    <rc><c>   1</c><c>Pb</c><c>    207.20000000</c><c>     14.00000000</c><c>  PAW_PBE Pb_d 06Sep2000                </c></rc>
   </set>
  </array>
 </atominfo>
 <structure name="initialpos" >
  <crystal>
   <varray name="basis" >
    <v>       8.53269958       0.00000000       0.00000000 </v>
    <v>      -0.00051933       8.49699972       0.00000000 </v>
    <v>       0.00000000       0.00000000      23.59499931 </v>
   </varray>
   <i name="volume">   1710.69280467 </i>
   <varray name="rec_basis" >
    <v>       0.11719620       0.00000716       0.00000000 </v>
    <v>       0.00000000       0.11768860       0.00000000 </v>
    <v>       0.00000000       0.00000000       0.04238186 </v>
   </varray>
  </crystal>
  <varray name="positions" >
   <v>       0.00086000       0.99993000       0.24271000 </v>
   <v>       0.16615160       0.16511008       0.30347168 </v>
   <v>       0.50665875       0.17101846       0.30449006 </v>
   <v>       0.66822000       0.00107000       0.24272000 </v>
   <v>       0.83369059       0.17159554       0.30349425 </v>
   <v>       0.00044000       0.33497000       0.24240000 </v>
   <v>       0.16637229       0.50100932       0.30416942 </v>
   <v>       0.33469000       0.33305000       0.24267000 </v>
   <v>       0.50417829       0.49833863       0.30292644 </v>
   <v>       0.82946616       0.49883706       0.30295867 </v>
   <v>       0.16855964       0.83458073       0.30469043 </v>
   <v>       0.33342000       0.66555000       0.24261000 </v>
   <v>       0.83582244       0.83262335       0.30368920 </v>
   <v>       0.00064000       0.00119000       0.00199000 </v>
   <v>       0.99643848       0.00394148       0.36126548 </v>
   <v>       0.16843000       0.16962000       0.06269000 </v>
   <v>       0.33460000       0.00297000       0.00254000 </v>
   <v>       0.33732413       0.00662429       0.36201239 </v>
   <v>       0.50463000       0.16850000       0.06120000 </v>
   <v>       0.83272000       0.16670000       0.06193000 </v>
   <v>       0.00004000       0.33467000       0.00213000 </v>
   <v>       0.00490451       0.33221797       0.36068329 </v>
   <v>       0.16757000       0.49895000       0.06268000 </v>
   <v>       0.50099000       0.49896000       0.06206000 </v>
   <v>       0.83393000       0.50234000       0.06235000 </v>
   <v>       0.00121000       0.66785000       0.00188000 </v>
   <v>       0.99553919       0.66398904       0.36014185 </v>
   <v>       0.16792000       0.83462000       0.06228000 </v>
   <v>       0.33437000       0.66664000       0.00225000 </v>
   <v>       0.33915947       0.66201745       0.36149755 </v>
   <v>       0.50152000       0.83563000       0.06217000 </v>
   <v>       0.66753000       0.66705000       0.00175000 </v>
   <v>       0.66272101       0.67309315       0.36099833 </v>
   <v>       0.83293000       0.83584000       0.06235000 </v>
   <v>       0.00121000       0.00098000       0.12225000 </v>
   <v>       0.16700000       0.16811000       0.18239000 </v>
   <v>       0.33470000       0.00227000       0.12192000 </v>
   <v>       0.50174000       0.16716000       0.18263000 </v>
   <v>       0.83421000       0.16639000       0.18283000 </v>
   <v>       0.16964000       0.49868000       0.18209000 </v>
   <v>       0.50219000       0.50081000       0.18317000 </v>
   <v>       0.66741000       0.33395000       0.12233000 </v>
   <v>       0.83134000       0.50253000       0.18283000 </v>
   <v>       0.00132000       0.66795000       0.12253000 </v>
   <v>       0.16898000       0.83509000       0.18243000 </v>
   <v>       0.33446000       0.66703000       0.12223000 </v>
   <v>       0.49971000       0.83538000       0.18278000 </v>
   <v>       0.66698000       0.66840000       0.12259000 </v>
   <v>       0.83488000       0.83403000       0.18294000 </v>
   <v>       0.33558000       0.99863000       0.24353000 </v>
   <v>       0.66801000       0.33262000       0.24229000 </v>
   <v>       0.00448000       0.66739000       0.24217000 </v>
   <v>       0.49635414       0.83421436       0.30120319 </v>
   <v>       0.66521000       0.67351000       0.24327000 </v>
   <v>       0.66620000       0.99680000       0.00000000 </v>
   <v>       0.66783683       0.99448462       0.36260661 </v>
   <v>       0.33213000       0.33386000       0.00135000 </v>
   <v>       0.33100801       0.33263928       0.36350500 </v>
   <v>       0.67040000       0.33673000       0.00321000 </v>
   <v>       0.66728000       0.99998000       0.12246000 </v>
   <v>       0.99806000       0.33495000       0.12235000 </v>
   <v>       0.33675000       0.33238000       0.12261000 </v>
   <v>       0.50666000       0.17102000       0.42000000 </v>
  </varray>
  <varray name="selective"  type="logical" >
   <v type="logical" >  F  F  F </v>
   <v type="logical" >  T  T  T </v>
   <v type="logical" >  T  T  T </v>
   <v type="logical" >  F  F  F </v>
   <v type="logical" >  T  T  T </v>
   <v type="logical" >  F  F  F </v>
   <v type="logical" >  T  T  T </v>
   <v type="logical" >  F  F  F </v>
   <v type="logical" >  T  T  T </v>
   <v type="logical" >  T  T  T </v>
   <v type="logical" >  T  T  T </v>
   <v type="logical" >  F  F  F </v>
   <v type="logical" >  T  T  T </v>
   <v type="logical" >  F  F  F </v>
   <v type="logical" >  T  T  T </v>
   <v type="logical" >  F  F  F </v>
   <v type="logical" >  F  F  F </v>
   <v type="logical" >  T  T  T </v>
   <v type="logical" >  F  F  F </v>
   <v type="logical" >  F  F  F </v>
   <v type="logical" >  F  F  F </v>
   <v type="logical" >  T  T  T </v>
   <v type="logical" >  F  F  F </v>
   <v type="logical" >  F  F  F </v>
   <v type="logical" >  F  F  F </v>
   <v type="logical" >  F  F  F </v>
   <v type="logical" >  T  T  T </v>
   <v type="logical" >  F  F  F </v>
   <v type="logical" >  F  F  F </v>
   <v type="logical" >  T  T  T </v>
   <v type="logical" >  F  F  F </v>
   <v type="logical" >  F  F  F </v>
   <v type="logical" >  T  T  T </v>
   <v type="logical" >  F  F  F </v>
   <v type="logical" >  F  F  F </v>
   <v type="logical" >  F  F  F </v>
   <v type="logical" >  F  F  F </v>
   <v type="logical" >  F  F  F </v>
   <v type="logical" >  F  F  F </v>
   <v type="logical" >  F  F  F </v>
   <v type="logical" >  F  F  F </v>
   <v type="logical" >  F  F  F </v>
   <v type="logical" >  F  F  F </v>
   <v type="logical" >  F  F  F </v>
   <v type="logical" >  F  F  F </v>
   <v type="logical" >  F  F  F </v>
   <v type="logical" >  F  F  F </v>
   <v type="logical" >  F  F  F </v>
   <v type="logical" >  F  F  F </v>
   <v type="logical" >  F  F  F </v>
   <v type="logical" >  F  F  F </v>
   <v type="logical" >  F  F  F </v>
   <v type="logical" >  T  T  T </v>
   <v type="logical" >  F  F  F </v>
   <v type="logical" >  F  F  F </v>
   <v type="logical" >  T  T  T </v>
   <v type="logical" >  F  F  F </v>
   <v type="logical" >  T  T  T </v>
   <v type="logical" >  F  F  F </v>
   <v type="logical" >  F  F  F </v>
   <v type="logical" >  F  F  F </v>
   <v type="logical" >  F  F  F </v>
   <v type="logical" >  T  T  T </v>
  </varray>
  <nose>
   <v>      -3.00000000       0.00000000       0.00010000       0.00010000 </v>
  </nose>
 </structure>
 <calculation>
  <scstep>
   <time name="dav">  123.74   17.87</time>
   <time name="total">  145.97   23.59</time>
   <dipole>
    <v name="dipole">      0.00000000       0.00000000      -0.00005640 </v>
    <i name="Tr[quadrupol]">  -7073.57093388 </i>
    <i name="Echarged">      0.00000000 </i>
    <i name="Edipol_quadrupol">      0.00000000 </i>
    <i name="Eion">      0.00000000 </i>
   </dipole>
   <energy>
    <i name="alphaZ">   1801.23968488 </i>
    <i name="ewald"> 208097.24832656 </i>
    <i name="hartreedc">-258410.26070617 </i>
    <i name="XCdc">    944.08004015 </i>
    <i name="pawpsdc">  45612.52296067 </i>
    <i name="pawaedc"> -46602.56091303 </i>
    <i name="eentropy">      0.00031004 </i>
    <i name="bandstr">   1885.19465226 </i>
    <i name="atom">  52205.67765473 </i>
    <i name="e_fr_energy">   5533.14201010 </i>
    <i name="e_wo_entrp">   5533.14170006 </i>
    <i name="e_0_energy">   5533.14190675 </i>
   </energy>
  </scstep>
  <scstep>
   <time name="dav">  118.30   17.15</time>
   <time name="total">  118.40   17.16</time>
   <dipole>
    <v name="dipole">      0.00000000       0.00000000      -0.00005640 </v>
    <i name="Tr[quadrupol]">  -7073.57093388 </i>
    <i name="Echarged">      0.00000000 </i>
    <i name="Edipol_quadrupol">      0.00000000 </i>
    <i name="Eion">      0.00000000 </i>
   </dipole>
   <energy>
    <i name="e_fr_energy">    -62.81147493 </i>
    <i name="e_wo_entrp">    -62.81102729 </i>
    <i name="e_0_energy">    -62.81132572 </i>
   </energy>
  </scstep>
  <scstep>
   <time name="dav">  122.64   17.61</time>
   <time name="total">  122.73   17.63</time>
   <dipole>
    <v name="dipole">      0.00000000       0.00000000      -0.00005640 </v>
    <i name="Tr[quadrupol]">  -7073.57093388 </i>
    <i name="Echarged">      0.00000000 </i>
    <i name="Edipol_quadrupol">      0.00000000 </i>
    <i name="Eion">      0.00000000 </i>
   </dipole>
   <energy>
    <i name="e_fr_energy">   -517.44207278 </i>
    <i name="e_wo_entrp">   -517.44652367 </i>
    <i name="e_0_energy">   -517.44355641 </i>
   </energy>
  </scstep>
  <scstep>
   <time name="dav">  185.10   26.66</time>
   <time name="total">  185.17   26.68</time>
   <dipole>
    <v name="dipole">      0.00000000       0.00000000      -0.00005640 </v>
    <i name="Tr[quadrupol]">  -7073.57093388 </i>
    <i name="Echarged">      0.00000000 </i>
    <i name="Edipol_quadrupol">      0.00000000 </i>
    <i name="Eion">      0.00000000 </i>
   </dipole>
   <energy>
    <i name="e_fr_energy">   -576.64863302 </i>
    <i name="e_wo_entrp">   -576.66217149 </i>
    <i name="e_0_energy">   -576.65314584 </i>
   </energy>
  </scstep>
  <scstep>
   <time name="dav">  173.51   24.92</time>
   <time name="total">  177.65   25.90</time>
   <dipole>
    <v name="dipole">      0.00000000       0.00000000      -0.00005640 </v>
    <i name="Tr[quadrupol]">  -7073.57093388 </i>
    <i name="Echarged">      0.00000000 </i>
    <i name="Edipol_quadrupol">      0.00000000 </i>
    <i name="Eion">      0.00000000 </i>
   </dipole>
   <energy>
    <i name="e_fr_energy">   -580.01124095 </i>
    <i name="e_wo_entrp">   -580.02458900 </i>
    <i name="e_0_energy">   -580.01569030 </i>
   </energy>
  </scstep>
  <scstep>
   <time name="dav">  189.57   27.31</time>
   <time name="total">  215.24   33.94</time>
   <dipole>
    <v name="dipole">      0.00000000       0.00000000       1.78429950 </v>
    <i name="Tr[quadrupol]">  -7096.33330765 </i>
    <i name="Echarged">      0.00000000 </i>
    <i name="Edipol_quadrupol">      0.00000000 </i>
    <i name="Eion">      0.00000000 </i>
   </dipole>
   <energy>
    <i name="e_fr_energy">   -726.30594280 </i>
    <i name="e_wo_entrp">   -726.30340240 </i>
    <i name="e_0_energy">   -726.30509600 </i>
   </energy>
  </scstep>
  <scstep>
   <time name="dav">  194.18   28.10</time>
   <time name="total">  220.58   34.67</time>
   <dipole>
    <v name="dipole">      0.00000000       0.00000000      -1.54713937 </v>
    <i name="Tr[quadrupol]">  -7085.27490814 </i>
    <i name="Echarged">      0.00000000 </i>
    <i name="Edipol_quadrupol">      0.00000000 </i>
    <i name="Eion">      0.00000000 </i>
   </dipole>
   <energy>
    <i name="e_fr_energy">   -688.29800011 </i>
    <i name="e_wo_entrp">   -688.30266154 </i>
    <i name="e_0_energy">   -688.29955392 </i>
   </energy>
  </scstep>
  <scstep>
   <time name="dav">  193.57   27.78</time>
   <time name="total">  219.80   34.38</time>
   <dipole>
    <v name="dipole">      0.00000000       0.00000000       0.62017564 </v>
    <i name="Tr[quadrupol]">  -7081.97820068 </i>
    <i name="Echarged">      0.00000000 </i>
    <i name="Edipol_quadrupol">      0.00000000 </i>
    <i name="Eion">      0.00000000 </i>
   </dipole>
   <energy>
    <i name="e_fr_energy">   -547.90544339 </i>
    <i name="e_wo_entrp">   -547.89290120 </i>
    <i name="e_0_energy">   -547.90126266 </i>
   </energy>
  </scstep>
  <scstep>
   <time name="dav">  182.93   26.33</time>
   <time name="total">  209.34   32.97</time>
   <dipole>
    <v name="dipole">      0.00000000       0.00000000       0.09752577 </v>
    <i name="Tr[quadrupol]">  -7081.09860798 </i>
    <i name="Echarged">      0.00000000 </i>
    <i name="Edipol_quadrupol">      0.00000000 </i>
    <i name="Eion">      0.00000000 </i>
   </dipole>
   <energy>
    <i name="e_fr_energy">   -528.76033614 </i>
    <i name="e_wo_entrp">   -528.78368276 </i>
    <i name="e_0_energy">   -528.76811835 </i>
   </energy>
  </scstep>
  <scstep>
   <time name="dav">  175.35   25.21</time>
   <time name="total">  201.95   31.84</time>
   <dipole>
    <v name="dipole">      0.00000000       0.00000000       0.30605013 </v>
    <i name="Tr[quadrupol]">  -7081.80554616 </i>
    <i name="Echarged">      0.00000000 </i>
    <i name="Edipol_quadrupol">      0.00000000 </i>
    <i name="Eion">      0.00000000 </i>
   </dipole>
   <energy>
    <i name="e_fr_energy">   -515.63085751 </i>
    <i name="e_wo_entrp">   -515.62245424 </i>
    <i name="e_0_energy">   -515.62805642 </i>
   </energy>
  </scstep>
  <scstep>
   <time name="dav">  159.52   23.02</time>
   <time name="total">  186.08   29.64</time>
   <dipole>
    <v name="dipole">      0.00000000       0.00000000      -0.06963816 </v>
    <i name="Tr[quadrupol]">  -7088.46286970 </i>
    <i name="Echarged">      0.00000000 </i>
    <i name="Edipol_quadrupol">      0.00000000 </i>
    <i name="Eion">      0.00000000 </i>
   </dipole>
   <energy>
    <i name="e_fr_energy">   -497.68670028 </i>
    <i name="e_wo_entrp">   -497.68496864 </i>
    <i name="e_0_energy">   -497.68612307 </i>
   </energy>
  </scstep>
  <scstep>
   <time name="dav">  158.34   22.87</time>
   <time name="total">  184.10   29.50</time>
   <dipole>
    <v name="dipole">      0.00000000       0.00000000       0.20727337 </v>
    <i name="Tr[quadrupol]">  -7094.11282746 </i>
    <i name="Echarged">      0.00000000 </i>
    <i name="Edipol_quadrupol">      0.00000000 </i>
    <i name="Eion">      0.00000000 </i>
   </dipole>
   <energy>
    <i name="e_fr_energy">   -491.59300335 </i>
    <i name="e_wo_entrp">   -491.61536304 </i>
    <i name="e_0_energy">   -491.60045658 </i>
   </energy>
  </scstep>
  <scstep>
   <time name="dav">  155.21   22.63</time>
   <time name="total">  180.99   29.28</time>
   <dipole>
    <v name="dipole">      0.00000000       0.00000000       0.15999542 </v>
    <i name="Tr[quadrupol]">  -7095.69052219 </i>
    <i name="Echarged">      0.00000000 </i>
    <i name="Edipol_quadrupol">      0.00000000 </i>
    <i name="Eion">      0.00000000 </i>
   </dipole>
   <energy>
    <i name="e_fr_energy">   -491.67062162 </i>
    <i name="e_wo_entrp">   -491.69463057 </i>
    <i name="e_0_energy">   -491.67862461 </i>
   </energy>
  </scstep>
  <scstep>
   <time name="dav">  167.33   24.06</time>
   <time name="total">  193.77   30.70</time>
   <dipole>
    <v name="dipole">      0.00000000       0.00000000       0.13018191 </v>
    <i name="Tr[quadrupol]">  -7094.95384742 </i>
    <i name="Echarged">      0.00000000 </i>
    <i name="Edipol_quadrupol">      0.00000000 </i>
    <i name="Eion">      0.00000000 </i>
   </dipole>
   <energy>
    <i name="e_fr_energy">   -491.43669145 </i>
    <i name="e_wo_entrp">   -491.46767655 </i>
    <i name="e_0_energy">   -491.44701982 </i>
   </energy>
  </scstep>
  <scstep>
   <time name="dav">  184.48   26.61</time>
   <time name="total">  211.14   33.31</time>
   <dipole>
    <v name="dipole">      0.00000000       0.00000000       0.12245579 </v>
    <i name="Tr[quadrupol]">  -7096.07683318 </i>
    <i name="Echarged">      0.00000000 </i>
    <i name="Edipol_quadrupol">      0.00000000 </i>
    <i name="Eion">      0.00000000 </i>
   </dipole>
   <energy>
    <i name="e_fr_energy">   -492.57983713 </i>
    <i name="e_wo_entrp">   -492.60469990 </i>
    <i name="e_0_energy">   -492.58812472 </i>
   </energy>
  </scstep>
  <scstep>
   <time name="dav">  181.47   26.15</time>
   <time name="total">  208.44   32.88</time>
   <dipole>
    <v name="dipole">      0.00000000       0.00000000       0.25698547 </v>
    <i name="Tr[quadrupol]">  -7100.08571069 </i>
    <i name="Echarged">      0.00000000 </i>
    <i name="Edipol_quadrupol">      0.00000000 </i>
    <i name="Eion">      0.00000000 </i>
   </dipole>
   <energy>
    <i name="e_fr_energy">   -496.60610029 </i>
    <i name="e_wo_entrp">   -496.62290617 </i>
    <i name="e_0_energy">   -496.61170225 </i>
   </energy>
  </scstep>
  <scstep>
   <time name="dav">  180.88   25.98</time>
   <time name="total">  206.87   32.71</time>
   <dipole>
    <v name="dipole">      0.00000000       0.00000000       0.06667688 </v>
    <i name="Tr[quadrupol]">  -7102.20461087 </i>
    <i name="Echarged">      0.00000000 </i>
    <i name="Edipol_quadrupol">      0.00000000 </i>
    <i name="Eion">      0.00000000 </i>
   </dipole>
   <energy>
    <i name="e_fr_energy">   -498.57421478 </i>
    <i name="e_wo_entrp">   -498.56801083 </i>
    <i name="e_0_energy">   -498.57214680 </i>
   </energy>
  </scstep>
  <scstep>
   <time name="dav">  172.11   24.91</time>
   <time name="total">  199.18   31.64</time>
   <dipole>
    <v name="dipole">      0.00000000       0.00000000       0.13744237 </v>
    <i name="Tr[quadrupol]">  -7103.47642493 </i>
    <i name="Echarged">      0.00000000 </i>
    <i name="Edipol_quadrupol">      0.00000000 </i>
    <i name="Eion">      0.00000000 </i>
   </dipole>
   <energy>
    <i name="e_fr_energy">   -499.88123602 </i>
    <i name="e_wo_entrp">   -499.88594698 </i>
    <i name="e_0_energy">   -499.88280634 </i>
   </energy>
  </scstep>
  <scstep>
   <time name="dav">  175.86   25.45</time>
   <time name="total">  202.17   32.14</time>
   <dipole>
    <v name="dipole">      0.00000000       0.00000000       0.10448794 </v>
    <i name="Tr[quadrupol]">  -7103.86008573 </i>
    <i name="Echarged">      0.00000000 </i>
    <i name="Edipol_quadrupol">      0.00000000 </i>
    <i name="Eion">      0.00000000 </i>
   </dipole>
   <energy>
    <i name="e_fr_energy">   -500.65213137 </i>
    <i name="e_wo_entrp">   -500.65714691 </i>
    <i name="e_0_energy">   -500.65380321 </i>
   </energy>
  </scstep>
  <scstep>
   <time name="dav">  180.81   25.94</time>
   <time name="total">  206.94   32.60</time>
   <dipole>
    <v name="dipole">      0.00000000       0.00000000       0.12510448 </v>
    <i name="Tr[quadrupol]">  -7103.99643016 </i>
    <i name="Echarged">      0.00000000 </i>
    <i name="Edipol_quadrupol">      0.00000000 </i>
    <i name="Eion">      0.00000000 </i>
   </dipole>
   <energy>
    <i name="e_fr_energy">   -501.06702314 </i>
    <i name="e_wo_entrp">   -501.07829596 </i>
    <i name="e_0_energy">   -501.07078075 </i>
   </energy>
  </scstep>
  <scstep>
   <time name="dav">  182.68   26.21</time>
   <time name="total">  209.76   32.94</time>
   <dipole>
    <v name="dipole">      0.00000000       0.00000000       0.15706609 </v>
    <i name="Tr[quadrupol]">  -7102.98606101 </i>
    <i name="Echarged">      0.00000000 </i>
    <i name="Edipol_quadrupol">      0.00000000 </i>
    <i name="Eion">      0.00000000 </i>
   </dipole>
   <energy>
    <i name="e_fr_energy">   -501.54894501 </i>
    <i name="e_wo_entrp">   -501.56939684 </i>
    <i name="e_0_energy">   -501.55576228 </i>
   </energy>
  </scstep>
  <scstep>
   <time name="dav">  184.32   26.48</time>
   <time name="total">  211.31   33.17</time>
   <dipole>
    <v name="dipole">      0.00000000       0.00000000       0.13915509 </v>
    <i name="Tr[quadrupol]">  -7102.48950982 </i>
    <i name="Echarged">      0.00000000 </i>
    <i name="Edipol_quadrupol">      0.00000000 </i>
    <i name="Eion">      0.00000000 </i>
   </dipole>
   <energy>
    <i name="e_fr_energy">   -501.71497146 </i>
    <i name="e_wo_entrp">   -501.73717291 </i>
    <i name="e_0_energy">   -501.72237194 </i>
   </energy>
  </scstep>
  <scstep>
   <time name="dav">  176.78   25.40</time>
   <time name="total">  203.66   32.08</time>
   <dipole>
    <v name="dipole">      0.00000000       0.00000000       0.14859328 </v>
    <i name="Tr[quadrupol]">  -7102.92710123 </i>
    <i name="Echarged">      0.00000000 </i>
    <i name="Edipol_quadrupol">      0.00000000 </i>
    <i name="Eion">      0.00000000 </i>
   </dipole>
   <energy>
    <i name="e_fr_energy">   -501.78909795 </i>
    <i name="e_wo_entrp">   -501.81436272 </i>
    <i name="e_0_energy">   -501.79751954 </i>
   </energy>
  </scstep>
  <scstep>
   <time name="dav">  180.29   25.88</time>
   <time name="total">  207.16   32.58</time>
   <dipole>
    <v name="dipole">      0.00000000       0.00000000       0.12498315 </v>
    <i name="Tr[quadrupol]">  -7103.14034204 </i>
    <i name="Echarged">      0.00000000 </i>
    <i name="Edipol_quadrupol">      0.00000000 </i>
    <i name="Eion">      0.00000000 </i>
   </dipole>
   <energy>
    <i name="e_fr_energy">   -501.93389220 </i>
    <i name="e_wo_entrp">   -501.96013469 </i>
    <i name="e_0_energy">   -501.94263970 </i>
   </energy>
  </scstep>
  <scstep>
   <time name="dav">  187.55   27.23</time>
   <time name="total">  213.94   33.94</time>
   <dipole>
    <v name="dipole">      0.00000000       0.00000000       0.12361388 </v>
    <i name="Tr[quadrupol]">  -7103.24415987 </i>
    <i name="Echarged">      0.00000000 </i>
    <i name="Edipol_quadrupol">      0.00000000 </i>
    <i name="Eion">      0.00000000 </i>
   </dipole>
   <energy>
    <i name="e_fr_energy">   -502.27396560 </i>
    <i name="e_wo_entrp">   -502.30228218 </i>
    <i name="e_0_energy">   -502.28340446 </i>
   </energy>
  </scstep>
  <scstep>
   <time name="dav">  181.49   26.03</time>
   <time name="total">  208.34   32.76</time>
   <dipole>
    <v name="dipole">      0.00000000       0.00000000       0.10381598 </v>
    <i name="Tr[quadrupol]">  -7102.87411121 </i>
    <i name="Echarged">      0.00000000 </i>
    <i name="Edipol_quadrupol">      0.00000000 </i>
    <i name="Eion">      0.00000000 </i>
   </dipole>
   <energy>
    <i name="e_fr_energy">   -502.48629298 </i>
    <i name="e_wo_entrp">   -502.50130412 </i>
    <i name="e_0_energy">   -502.49129669 </i>
   </energy>
  </scstep>
  <scstep>
   <time name="dav">  176.11   25.32</time>
   <time name="total">  203.56   32.09</time>
   <dipole>
    <v name="dipole">      0.00000000       0.00000000       0.10255034 </v>
    <i name="Tr[quadrupol]">  -7102.99500730 </i>
    <i name="Echarged">      0.00000000 </i>
    <i name="Edipol_quadrupol">      0.00000000 </i>
    <i name="Eion">      0.00000000 </i>
   </dipole>
   <energy>
    <i name="e_fr_energy">   -502.53375939 </i>
    <i name="e_wo_entrp">   -502.54798801 </i>
    <i name="e_0_energy">   -502.53850226 </i>
   </energy>
  </scstep>
  <scstep>
   <time name="dav">  174.14   25.08</time>
   <time name="total">  201.65   31.83</time>
   <dipole>
    <v name="dipole">      0.00000000       0.00000000       0.09849106 </v>
    <i name="Tr[quadrupol]">  -7103.18189778 </i>
    <i name="Echarged">      0.00000000 </i>
    <i name="Edipol_quadrupol">      0.00000000 </i>
    <i name="Eion">      0.00000000 </i>
   </dipole>
   <energy>
    <i name="e_fr_energy">   -502.58997437 </i>
    <i name="e_wo_entrp">   -502.60414595 </i>
    <i name="e_0_energy">   -502.59469823 </i>
   </energy>
  </scstep>
  <scstep>
   <time name="dav">  185.88   26.72</time>
   <time name="total">  213.33   33.46</time>
   <dipole>
    <v name="dipole">      0.00000000       0.00000000       0.11467074 </v>
    <i name="Tr[quadrupol]">  -7103.43306955 </i>
    <i name="Echarged">      0.00000000 </i>
    <i name="Edipol_quadrupol">      0.00000000 </i>
    <i name="Eion">      0.00000000 </i>
   </dipole>
   <energy>
    <i name="e_fr_energy">   -502.65529850 </i>
    <i name="e_wo_entrp">   -502.67245573 </i>
    <i name="e_0_energy">   -502.66101757 </i>
   </energy>
  </scstep>
  <scstep>
   <time name="dav">  173.22   24.96</time>
   <time name="total">  200.79   31.72</time>
   <dipole>
    <v name="dipole">      0.00000000       0.00000000       0.12053341 </v>
    <i name="Tr[quadrupol]">  -7103.51524363 </i>
    <i name="Echarged">      0.00000000 </i>
    <i name="Edipol_quadrupol">      0.00000000 </i>
    <i name="Eion">      0.00000000 </i>
   </dipole>
   <energy>
    <i name="e_fr_energy">   -502.68065947 </i>
    <i name="e_wo_entrp">   -502.69953280 </i>
    <i name="e_0_energy">   -502.68695058 </i>
   </energy>
  </scstep>
  <scstep>
   <time name="dav">  180.82   25.97</time>
   <time name="total">  208.55   32.73</time>
   <dipole>
    <v name="dipole">      0.00000000       0.00000000       0.11971469 </v>
    <i name="Tr[quadrupol]">  -7103.35674384 </i>
    <i name="Echarged">      0.00000000 </i>
    <i name="Edipol_quadrupol">      0.00000000 </i>
    <i name="Eion">      0.00000000 </i>
   </dipole>
   <energy>
    <i name="e_fr_energy">   -502.67806391 </i>
    <i name="e_wo_entrp">   -502.69707249 </i>
    <i name="e_0_energy">   -502.68440010 </i>
   </energy>
  </scstep>
  <scstep>
   <time name="dav">  182.41   26.52</time>
   <time name="total">  210.07   33.33</time>
   <dipole>
    <v name="dipole">      0.00000000       0.00000000       0.11635765 </v>
    <i name="Tr[quadrupol]">  -7103.28467925 </i>
    <i name="Echarged">      0.00000000 </i>
    <i name="Edipol_quadrupol">      0.00000000 </i>
    <i name="Eion">      0.00000000 </i>
   </dipole>
   <energy>
    <i name="e_fr_energy">   -502.68058934 </i>
    <i name="e_wo_entrp">   -502.69919695 </i>
    <i name="e_0_energy">   -502.68679188 </i>
   </energy>
  </scstep>
  <scstep>
   <time name="dav">  178.04   25.52</time>
   <time name="total">  204.84   32.32</time>
   <dipole>
    <v name="dipole">      0.00000000       0.00000000       0.11535592 </v>
    <i name="Tr[quadrupol]">  -7103.27113472 </i>
    <i name="Echarged">      0.00000000 </i>
    <i name="Edipol_quadrupol">      0.00000000 </i>
    <i name="Eion">      0.00000000 </i>
   </dipole>
   <energy>
    <i name="e_fr_energy">   -502.68708940 </i>
    <i name="e_wo_entrp">   -502.70589304 </i>
    <i name="e_0_energy">   -502.69335728 </i>
   </energy>
  </scstep>
  <scstep>
   <time name="dav">  185.40   26.67</time>
   <time name="total">  212.99   33.49</time>
   <dipole>
    <v name="dipole">      0.00000000       0.00000000       0.11528639 </v>
    <i name="Tr[quadrupol]">  -7103.24476709 </i>
    <i name="Echarged">      0.00000000 </i>
    <i name="Edipol_quadrupol">      0.00000000 </i>
    <i name="Eion">      0.00000000 </i>
   </dipole>
   <energy>
    <i name="e_fr_energy">   -502.69230699 </i>
    <i name="e_wo_entrp">   -502.71111569 </i>
    <i name="e_0_energy">   -502.69857656 </i>
   </energy>
  </scstep>
  <scstep>
   <time name="dav">  184.38   26.67</time>
   <time name="total">  211.87   33.50</time>
   <dipole>
    <v name="dipole">      0.00000000       0.00000000       0.11637015 </v>
    <i name="Tr[quadrupol]">  -7103.13449547 </i>
    <i name="Echarged">      0.00000000 </i>
    <i name="Edipol_quadrupol">      0.00000000 </i>
    <i name="Eion">      0.00000000 </i>
   </dipole>
   <energy>
    <i name="e_fr_energy">   -502.69374309 </i>
    <i name="e_wo_entrp">   -502.71296644 </i>
    <i name="e_0_energy">   -502.70015087 </i>
   </energy>
  </scstep>
  <scstep>
   <time name="dav">  174.33   25.10</time>
   <time name="total">  202.12   31.93</time>
   <dipole>
    <v name="dipole">      0.00000000       0.00000000       0.11782696 </v>
    <i name="Tr[quadrupol]">  -7103.09580245 </i>
    <i name="Echarged">      0.00000000 </i>
    <i name="Edipol_quadrupol">      0.00000000 </i>
    <i name="Eion">      0.00000000 </i>
   </dipole>
   <energy>
    <i name="e_fr_energy">   -502.69509191 </i>
    <i name="e_wo_entrp">   -502.71438062 </i>
    <i name="e_0_energy">   -502.70152148 </i>
   </energy>
  </scstep>
  <scstep>
   <time name="dav">  180.15   25.97</time>
   <time name="total">  207.03   32.82</time>
   <dipole>
    <v name="dipole">      0.00000000       0.00000000       0.11921612 </v>
    <i name="Tr[quadrupol]">  -7103.14952462 </i>
    <i name="Echarged">      0.00000000 </i>
    <i name="Edipol_quadrupol">      0.00000000 </i>
    <i name="Eion">      0.00000000 </i>
   </dipole>
   <energy>
    <i name="e_fr_energy">   -502.69709878 </i>
    <i name="e_wo_entrp">   -502.71716588 </i>
    <i name="e_0_energy">   -502.70378781 </i>
   </energy>
  </scstep>
  <scstep>
   <time name="dav">  186.19   26.76</time>
   <time name="total">  214.19   33.64</time>
   <dipole>
    <v name="dipole">      0.00000000       0.00000000       0.11941967 </v>
    <i name="Tr[quadrupol]">  -7103.20126960 </i>
    <i name="Echarged">      0.00000000 </i>
    <i name="Edipol_quadrupol">      0.00000000 </i>
    <i name="Eion">      0.00000000 </i>
   </dipole>
   <energy>
    <i name="e_fr_energy">   -502.69989336 </i>
    <i name="e_wo_entrp">   -502.72039729 </i>
    <i name="e_0_energy">   -502.70672800 </i>
   </energy>
  </scstep>
  <scstep>
   <time name="dav">  177.29   25.62</time>
   <time name="total">  204.42   32.61</time>
   <dipole>
    <v name="dipole">      0.00000000       0.00000000       0.11893724 </v>
    <i name="Tr[quadrupol]">  -7103.20500551 </i>
    <i name="Echarged">      0.00000000 </i>
    <i name="Edipol_quadrupol">      0.00000000 </i>
    <i name="Eion">      0.00000000 </i>
   </dipole>
   <energy>
    <i name="e_fr_energy">   -502.69960449 </i>
    <i name="e_wo_entrp">   -502.71999182 </i>
    <i name="e_0_energy">   -502.70640026 </i>
   </energy>
  </scstep>
  <scstep>
   <time name="dav">  189.41   27.15</time>
   <time name="total">  217.47   34.12</time>
   <dipole>
    <v name="dipole">      0.00000000       0.00000000       0.11622612 </v>
    <i name="Tr[quadrupol]">  -7103.17612493 </i>
    <i name="Echarged">      0.00000000 </i>
    <i name="Edipol_quadrupol">      0.00000000 </i>
    <i name="Eion">      0.00000000 </i>
   </dipole>
   <energy>
    <i name="e_fr_energy">   -502.69917359 </i>
    <i name="e_wo_entrp">   -502.71913929 </i>
    <i name="e_0_energy">   -502.70582882 </i>
   </energy>
  </scstep>
  <scstep>
   <time name="dav">  163.26   23.46</time>
   <time name="total">  191.17   30.34</time>
   <dipole>
    <v name="dipole">      0.00000000       0.00000000       0.11688267 </v>
    <i name="Tr[quadrupol]">  -7103.16800817 </i>
    <i name="Echarged">      0.00000000 </i>
    <i name="Edipol_quadrupol">      0.00000000 </i>
    <i name="Eion">      0.00000000 </i>
   </dipole>
   <energy>
    <i name="e_fr_energy">   -502.69951846 </i>
    <i name="e_wo_entrp">   -502.71950956 </i>
    <i name="e_0_energy">   -502.70618216 </i>
   </energy>
  </scstep>
  <scstep>
   <time name="dav">  182.67   26.19</time>
   <time name="total">  209.96   33.10</time>
   <dipole>
    <v name="dipole">      0.00000000       0.00000000       0.11684858 </v>
    <i name="Tr[quadrupol]">  -7103.15264921 </i>
    <i name="Echarged">      0.00000000 </i>
    <i name="Edipol_quadrupol">      0.00000000 </i>
    <i name="Eion">      0.00000000 </i>
   </dipole>
   <energy>
    <i name="e_fr_energy">   -502.69987141 </i>
    <i name="e_wo_entrp">   -502.71965972 </i>
    <i name="e_0_energy">   -502.70646751 </i>
   </energy>
  </scstep>
  <scstep>
   <time name="dav">  186.05   26.74</time>
   <time name="total">  213.97   33.67</time>
   <dipole>
    <v name="dipole">      0.00000000       0.00000000       0.11655528 </v>
    <i name="Tr[quadrupol]">  -7103.14182470 </i>
    <i name="Echarged">      0.00000000 </i>
    <i name="Edipol_quadrupol">      0.00000000 </i>
    <i name="Eion">      0.00000000 </i>
   </dipole>
   <energy>
    <i name="e_fr_energy">   -502.70029756 </i>
    <i name="e_wo_entrp">   -502.71987978 </i>
    <i name="e_0_energy">   -502.70682497 </i>
   </energy>
  </scstep>
  <scstep>
   <time name="dav">  180.25   25.96</time>
   <time name="total">  207.91   32.99</time>
   <dipole>
    <v name="dipole">      0.00000000       0.00000000       0.11705322 </v>
    <i name="Tr[quadrupol]">  -7103.15401803 </i>
    <i name="Echarged">      0.00000000 </i>
    <i name="Edipol_quadrupol">      0.00000000 </i>
    <i name="Eion">      0.00000000 </i>
   </dipole>
   <energy>
    <i name="e_fr_energy">   -502.70025340 </i>
    <i name="e_wo_entrp">   -502.72005077 </i>
    <i name="e_0_energy">   -502.70685252 </i>
   </energy>
  </scstep>
  <scstep>
   <time name="dav">  164.17   23.71</time>
   <time name="total">  192.41   30.75</time>
   <dipole>
    <v name="dipole">      0.00000000       0.00000000       0.11685666 </v>
    <i name="Tr[quadrupol]">  -7103.15563660 </i>
    <i name="Echarged">      0.00000000 </i>
    <i name="Edipol_quadrupol">      0.00000000 </i>
    <i name="Eion">      0.00000000 </i>
   </dipole>
   <energy>
    <i name="e_fr_energy">   -502.70031427 </i>
    <i name="e_wo_entrp">   -502.72022188 </i>
    <i name="e_0_energy">   -502.70695014 </i>
   </energy>
  </scstep>
  <scstep>
   <time name="dav">  167.36   24.42</time>
   <time name="total">  194.96   31.50</time>
   <dipole>
    <v name="dipole">      0.00000000       0.00000000       0.11702486 </v>
    <i name="Tr[quadrupol]">  -7103.14879199 </i>
    <i name="Echarged">      0.00000000 </i>
    <i name="Edipol_quadrupol">      0.00000000 </i>
    <i name="Eion">      0.00000000 </i>
   </dipole>
   <energy>
    <i name="e_fr_energy">   -502.70037432 </i>
    <i name="e_wo_entrp">   -502.72041106 </i>
    <i name="e_0_energy">   -502.70705323 </i>
   </energy>
  </scstep>
  <scstep>
   <time name="dav">  163.54   23.60</time>
   <time name="total">  190.89   30.58</time>
   <dipole>
    <v name="dipole">      0.00000000       0.00000000       0.11661836 </v>
    <i name="Tr[quadrupol]">  -7103.14307432 </i>
    <i name="Echarged">      0.00000000 </i>
    <i name="Edipol_quadrupol">      0.00000000 </i>
    <i name="Eion">      0.00000000 </i>
   </dipole>
   <energy>
    <i name="e_fr_energy">   -502.70041198 </i>
    <i name="e_wo_entrp">   -502.72045853 </i>
    <i name="e_0_energy">   -502.70709416 </i>
   </energy>
  </scstep>
  <scstep>
   <time name="dav">   99.62   17.14</time>
   <time name="total">  127.79   24.15</time>
   <dipole>
    <v name="dipole">      0.00000000       0.00000000       0.11675332 </v>
    <i name="Tr[quadrupol]">  -7103.17861589 </i>
    <i name="Echarged">      0.00000000 </i>
    <i name="Edipol_quadrupol">      0.00000000 </i>
    <i name="Eion">      0.00000000 </i>
   </dipole>
   <energy>
    <i name="e_fr_energy">   -502.70042764 </i>
    <i name="e_wo_entrp">   -502.72048400 </i>
    <i name="e_0_energy">   -502.70711309 </i>
   </energy>
  </scstep>
  <scstep>
   <time name="dav">   81.36   15.48</time>
   <time name="total">  103.56   21.17</time>
   <dipole>
    <v name="dipole">      0.00000000       0.00000000       0.11665616 </v>
    <i name="Tr[quadrupol]">  -7103.18014395 </i>
    <i name="Echarged">      0.00000000 </i>
    <i name="Edipol_quadrupol">      0.00000000 </i>
    <i name="Eion">      0.00000000 </i>
   </dipole>
   <energy>
    <i name="alphaZ">   1802.00899119 </i>
    <i name="ewald"> 208097.24832656 </i>
    <i name="hartreedc">-258304.70960312 </i>
    <i name="XCdc">    950.18308368 </i>
    <i name="pawpsdc">  54796.47754696 </i>
    <i name="pawaedc"> -55880.07831584 </i>
    <i name="eentropy">      0.01997378 </i>
    <i name="bandstr">  -4169.52808036 </i>
    <i name="atom">  52205.67765473 </i>
    <i name="e_fr_energy">   -502.70042242 </i>
    <i name="e_wo_entrp">   -502.72039620 </i>
    <i name="e_0_energy">   -502.70708034 </i>
   </energy>
  </scstep>
  <structure>
   <crystal>
    <varray name="basis" >
     <v>       8.53269958       0.00000000       0.00000000 </v>
     <v>      -0.00051933       8.49699972       0.00000000 </v>
     <v>       0.00000000       0.00000000      23.59499931 </v>
    </varray>
    <i name="volume">   1710.69280467 </i>
    <varray name="rec_basis" >
     <v>       0.11719620       0.00000716       0.00000000 </v>
     <v>       0.00000000       0.11768860       0.00000000 </v>
     <v>       0.00000000       0.00000000       0.04238186 </v>
    </varray>
   </crystal>
   <varray name="positions" >
    <v>       0.00086000       0.99993000       0.24271000 </v>
    <v>       0.16615160       0.16511008       0.30347168 </v>
    <v>       0.50665875       0.17101846       0.30449006 </v>
    <v>       0.66822000       0.00107000       0.24272000 </v>
    <v>       0.83369059       0.17159554       0.30349425 </v>
    <v>       0.00044000       0.33497000       0.24240000 </v>
    <v>       0.16637229       0.50100932       0.30416942 </v>
    <v>       0.33469000       0.33305000       0.24267000 </v>
    <v>       0.50417829       0.49833863       0.30292644 </v>
    <v>       0.82946616       0.49883706       0.30295867 </v>
    <v>       0.16855964       0.83458073       0.30469043 </v>
    <v>       0.33342000       0.66555000       0.24261000 </v>
    <v>       0.83582244       0.83262335       0.30368920 </v>
    <v>       0.00064000       0.00119000       0.00199000 </v>
    <v>       0.99643848       0.00394148       0.36126548 </v>
    <v>       0.16843000       0.16962000       0.06269000 </v>
    <v>       0.33460000       0.00297000       0.00254000 </v>
    <v>       0.33732413       0.00662429       0.36201239 </v>
    <v>       0.50463000       0.16850000       0.06120000 </v>
    <v>       0.83272000       0.16670000       0.06193000 </v>
    <v>       0.00004000       0.33467000       0.00213000 </v>
    <v>       0.00490451       0.33221797       0.36068329 </v>
    <v>       0.16757000       0.49895000       0.06268000 </v>
    <v>       0.50099000       0.49896000       0.06206000 </v>
    <v>       0.83393000       0.50234000       0.06235000 </v>
    <v>       0.00121000       0.66785000       0.00188000 </v>
    <v>       0.99553919       0.66398904       0.36014185 </v>
    <v>       0.16792000       0.83462000       0.06228000 </v>
    <v>       0.33437000       0.66664000       0.00225000 </v>
    <v>       0.33915947       0.66201745       0.36149755 </v>
    <v>       0.50152000       0.83563000       0.06217000 </v>
    <v>       0.66753000       0.66705000       0.00175000 </v>
    <v>       0.66272101       0.67309315       0.36099833 </v>
    <v>       0.83293000       0.83584000       0.06235000 </v>
    <v>       0.00121000       0.00098000       0.12225000 </v>
    <v>       0.16700000       0.16811000       0.18239000 </v>
    <v>       0.33470000       0.00227000       0.12192000 </v>
    <v>       0.50174000       0.16716000       0.18263000 </v>
    <v>       0.83421000       0.16639000       0.18283000 </v>
    <v>       0.16964000       0.49868000       0.18209000 </v>
    <v>       0.50219000       0.50081000       0.18317000 </v>
    <v>       0.66741000       0.33395000       0.12233000 </v>
    <v>       0.83134000       0.50253000       0.18283000 </v>
    <v>       0.00132000       0.66795000       0.12253000 </v>
    <v>       0.16898000       0.83509000       0.18243000 </v>
    <v>       0.33446000       0.66703000       0.12223000 </v>
    <v>       0.49971000       0.83538000       0.18278000 </v>
    <v>       0.66698000       0.66840000       0.12259000 </v>
    <v>       0.83488000       0.83403000       0.18294000 </v>
    <v>       0.33558000       0.99863000       0.24353000 </v>
    <v>       0.66801000       0.33262000       0.24229000 </v>
    <v>       0.00448000       0.66739000       0.24217000 </v>
    <v>       0.49635414       0.83421436       0.30120319 </v>
    <v>       0.66521000       0.67351000       0.24327000 </v>
    <v>       0.66620000       0.99680000       0.00000000 </v>
    <v>       0.66783683       0.99448462       0.36260661 </v>
    <v>       0.33213000       0.33386000       0.00135000 </v>
    <v>       0.33100801       0.33263928       0.36350500 </v>
    <v>       0.67040000       0.33673000       0.00321000 </v>
    <v>       0.66728000       0.99998000       0.12246000 </v>
    <v>       0.99806000       0.33495000       0.12235000 </v>
    <v>       0.33675000       0.33238000       0.12261000 </v>
    <v>       0.50666000       0.17102000       0.42000000 </v>
   </varray>
  </structure>
  <varray name="forces" >
   <v>      -0.02366755      -0.01038239      -0.09142865 </v>
   <v>      -0.03346675       0.01311975      -0.03426345 </v>
   <v>       0.12230961       0.07763663      -0.49860545 </v>
   <v>       0.10094247       0.01700872      -0.10549126 </v>
   <v>      -0.10407475      -0.08438486       0.06020963 </v>
   <v>       0.02537737       0.03640976      -0.14355026 </v>
   <v>       0.01493041       0.04992422      -0.01786316 </v>
   <v>      -0.01927663      -0.01754332      -0.08336237 </v>
   <v>      -0.04550173      -0.10194440       0.06372995 </v>
   <v>       0.06365256       0.07814339      -0.02346527 </v>
   <v>       0.02841531       0.05329433       0.07531959 </v>
   <v>      -0.08219953      -0.11971295      -0.12115603 </v>
   <v>       0.01069914       0.03132603      -0.04782727 </v>
   <v>       0.02682285      -0.04422218       0.26587845 </v>
   <v>      -0.01079978      -0.01911395       0.01080577 </v>
   <v>      -0.33790234      -0.28579016       0.00342431 </v>
   <v>      -0.03607429      -0.01940854       0.38969591 </v>
   <v>      -1.46764457      -1.50696536      -1.35375493 </v>
   <v>      -0.21093835      -0.16980928       0.58684384 </v>
   <v>       0.43400725       0.14743207       0.20505638 </v>
   <v>      -0.07948271       0.01896521       0.40416369 </v>
   <v>       0.05589911       0.01708949       0.06824830 </v>
   <v>      -0.26804868       0.31521660       0.00292884 </v>
   <v>       0.10749197       0.48877264       0.20032692 </v>
   <v>       0.14957200       0.13762898      -0.08780202 </v>
   <v>       0.05242687       0.01487906       0.13477926 </v>
   <v>       0.00164132      -0.02841607      -0.01142959 </v>
   <v>      -0.02552321       0.00430929      -0.39455479 </v>
   <v>      -0.09954206       0.01881987       0.26056534 </v>
   <v>      -0.02088996       0.00127089      -0.02493043 </v>
   <v>      -0.28643704      -0.37335811       0.02094570 </v>
   <v>       0.00305648      -0.08401406       0.41519461 </v>
   <v>       0.00615034       0.09247037       0.02382744 </v>
   <v>       0.36066283      -0.35664326       0.00674842 </v>
   <v>       0.01572285       0.12718386      -0.02692559 </v>
   <v>      -0.01274965       0.00610167       0.07414330 </v>
   <v>       0.06837578       0.05189819       0.06287058 </v>
   <v>      -0.07821070      -0.06299876       0.16483818 </v>
   <v>       0.04064125       0.00489564       0.07021574 </v>
   <v>      -0.00630227      -0.02045881       0.22305417 </v>
   <v>       0.01550724       0.05482545       0.09601137 </v>
   <v>       0.05117285      -0.00232450      -0.01756979 </v>
   <v>       0.02748787       0.06004178       0.10089319 </v>
   <v>      -0.04792340      -0.07160883      -0.07081714 </v>
   <v>       0.04320638       0.05748316       0.07549480 </v>
   <v>       0.11830118      -0.00750781      -0.03612356 </v>
   <v>       0.01753399      -0.02150632       0.00250893 </v>
   <v>      -0.07809581      -0.07413410       0.05228264 </v>
   <v>      -0.02166646      -0.02786812       0.20201135 </v>
   <v>       0.17048046       0.06100807       0.05076293 </v>
   <v>      -0.04089618      -0.07437097       0.02297911 </v>
   <v>      -0.09832386      -0.14608078      -0.11314415 </v>
   <v>       0.01275036       0.15123739       0.25902132 </v>
   <v>      -0.12274077       0.09024206      -0.13630184 </v>
   <v>       0.06794268       0.43793070      -0.81309424 </v>
   <v>       1.53449298      -1.76445592      -1.46659578 </v>
   <v>       0.34083156       0.01392960      -0.68010282 </v>
   <v>      -1.86981908       1.64134507      -1.45336676 </v>
   <v>      -0.30539525      -0.36402663      -0.24846956 </v>
   <v>      -0.09081627       0.18520896      -0.35013731 </v>
   <v>      -0.04755702      -0.04707049      -0.03892596 </v>
   <v>       0.12088116      -0.08136415      -0.47456102 </v>
   <v>       1.76258018       1.43043616       4.30984052 </v>
  </varray>
  <varray name="stress" >
   <v>     -13.87199695      -2.26387966       2.42479762 </v>
   <v>      -2.26387890     -14.30834404       1.93931720 </v>
   <v>       2.42479771       1.93931671       1.82852979 </v>
  </varray>
  <energy>
   <i name="e_fr_energy">   -502.70042242 </i>
   <i name="e_wo_entrp">   -502.72039620 </i>
   <i name="e_0_energy">   -502.70708034 </i>
  </energy>
  <time name="totalsc"> 9714.37 1553.05</time>
 </calculation>
 <calculation>
  <scstep>
   <time name="dav">  142.49   20.49</time>
   <time name="total">  168.74   27.08</time>
   <dipole>
    <v name="dipole">      0.00000000       0.00000000       0.11655070 </v>
    <i name="Tr[quadrupol]">  -7086.68925707 </i>
    <i name="Echarged">      0.00000000 </i>
    <i name="Edipol_quadrupol">      0.00000000 </i>
    <i name="Eion">      0.00000000 </i>
   </dipole>
   <energy>
    <i name="alphaZ">   1802.97263805 </i>
    <i name="ewald"> 207723.17603475 </i>
    <i name="hartreedc">-257939.23158800 </i>
    <i name="XCdc">    949.97041288 </i>
    <i name="pawpsdc">  54796.66544992 </i>
    <i name="pawaedc"> -55880.25508095 </i>
    <i name="eentropy">      0.01618460 </i>
    <i name="bandstr">  -4156.58306174 </i>
    <i name="atom">  52205.67765473 </i>
    <i name="e_fr_energy">   -497.59135577 </i>
    <i name="e_wo_entrp">   -497.60754037 </i>
    <i name="e_0_energy">   -497.59675064 </i>
   </energy>
  </scstep>
  <scstep>
   <time name="dav">  158.87   22.86</time>
   <time name="total">  185.53   29.50</time>
   <dipole>
    <v name="dipole">      0.00000000       0.00000000      -0.27323818 </v>
    <i name="Tr[quadrupol]">  -7087.19520330 </i>
    <i name="Echarged">      0.00000000 </i>
    <i name="Edipol_quadrupol">      0.00000000 </i>
    <i name="Eion">      0.00000000 </i>
   </dipole>
   <energy>
    <i name="e_fr_energy">   -506.52430177 </i>
    <i name="e_wo_entrp">   -506.53145111 </i>
    <i name="e_0_energy">   -506.52668488 </i>
   </energy>
  </scstep>
  <scstep>
   <time name="dav">  187.86   27.01</time>
   <time name="total">  214.01   33.63</time>
   <dipole>
    <v name="dipole">      0.00000000       0.00000000       0.46936896 </v>
    <i name="Tr[quadrupol]">  -7087.72693069 </i>
    <i name="Echarged">      0.00000000 </i>
    <i name="Edipol_quadrupol">      0.00000000 </i>
    <i name="Eion">      0.00000000 </i>
   </dipole>
   <energy>
    <i name="e_fr_energy">   -508.22228570 </i>
    <i name="e_wo_entrp">   -508.22415355 </i>
    <i name="e_0_energy">   -508.22290832 </i>
   </energy>
  </scstep>
  <scstep>
   <time name="dav">  193.12   27.78</time>
   <time name="total">  219.60   34.44</time>
   <dipole>
    <v name="dipole">      0.00000000       0.00000000       0.02215140 </v>
    <i name="Tr[quadrupol]">  -7086.24358615 </i>
    <i name="Echarged">      0.00000000 </i>
    <i name="Edipol_quadrupol">      0.00000000 </i>
    <i name="Eion">      0.00000000 </i>
   </dipole>
   <energy>
    <i name="e_fr_energy">   -503.54334940 </i>
    <i name="e_wo_entrp">   -503.55653648 </i>
    <i name="e_0_energy">   -503.54774509 </i>
   </energy>
  </scstep>
  <scstep>
   <time name="dav">  157.40   22.58</time>
   <time name="total">  183.89   29.18</time>
   <dipole>
    <v name="dipole">      0.00000000       0.00000000       0.05116056 </v>
    <i name="Tr[quadrupol]">  -7087.07433935 </i>
    <i name="Echarged">      0.00000000 </i>
    <i name="Edipol_quadrupol">      0.00000000 </i>
    <i name="Eion">      0.00000000 </i>
   </dipole>
   <energy>
    <i name="e_fr_energy">   -503.49376261 </i>
    <i name="e_wo_entrp">   -503.50114311 </i>
    <i name="e_0_energy">   -503.49622278 </i>
   </energy>
  </scstep>
  <scstep>
   <time name="dav">  170.18   24.51</time>
   <time name="total">  195.86   31.13</time>
   <dipole>
    <v name="dipole">      0.00000000       0.00000000       0.09767269 </v>
    <i name="Tr[quadrupol]">  -7086.80187132 </i>
    <i name="Echarged">      0.00000000 </i>
    <i name="Edipol_quadrupol">      0.00000000 </i>
    <i name="Eion">      0.00000000 </i>
   </dipole>
   <energy>
    <i name="e_fr_energy">   -503.55639528 </i>
    <i name="e_wo_entrp">   -503.57126608 </i>
    <i name="e_0_energy">   -503.56135221 </i>
   </energy>
  </scstep>
  <scstep>
   <time name="dav">  188.88   27.15</time>
   <time name="total">  215.43   33.75</time>
   <dipole>
    <v name="dipole">      0.00000000       0.00000000       0.11291222 </v>
    <i name="Tr[quadrupol]">  -7087.17055549 </i>
    <i name="Echarged">      0.00000000 </i>
    <i name="Edipol_quadrupol">      0.00000000 </i>
    <i name="Eion">      0.00000000 </i>
   </dipole>
   <energy>
    <i name="e_fr_energy">   -503.66415368 </i>
    <i name="e_wo_entrp">   -503.68442346 </i>
    <i name="e_0_energy">   -503.67091027 </i>
   </energy>
  </scstep>
  <scstep>
   <time name="dav">  161.96   23.34</time>
   <time name="total">  188.55   29.95</time>
   <dipole>
    <v name="dipole">      0.00000000       0.00000000       0.12285902 </v>
    <i name="Tr[quadrupol]">  -7087.08495599 </i>
    <i name="Echarged">      0.00000000 </i>
    <i name="Edipol_quadrupol">      0.00000000 </i>
    <i name="Eion">      0.00000000 </i>
   </dipole>
   <energy>
    <i name="e_fr_energy">   -503.73059157 </i>
    <i name="e_wo_entrp">   -503.75139926 </i>
    <i name="e_0_energy">   -503.73752747 </i>
   </energy>
  </scstep>
  <scstep>
   <time name="dav">  176.99   25.45</time>
   <time name="total">  203.47   32.09</time>
   <dipole>
    <v name="dipole">      0.00000000       0.00000000       0.09529693 </v>
    <i name="Tr[quadrupol]">  -7086.99598886 </i>
    <i name="Echarged">      0.00000000 </i>
    <i name="Edipol_quadrupol">      0.00000000 </i>
    <i name="Eion">      0.00000000 </i>
   </dipole>
   <energy>
    <i name="e_fr_energy">   -503.71155245 </i>
    <i name="e_wo_entrp">   -503.72399224 </i>
    <i name="e_0_energy">   -503.71569904 </i>
   </energy>
  </scstep>
  <scstep>
   <time name="dav">  170.83   24.53</time>
   <time name="total">  196.91   31.18</time>
   <dipole>
    <v name="dipole">      0.00000000       0.00000000       0.08968442 </v>
    <i name="Tr[quadrupol]">  -7087.00324726 </i>
    <i name="Echarged">      0.00000000 </i>
    <i name="Edipol_quadrupol">      0.00000000 </i>
    <i name="Eion">      0.00000000 </i>
   </dipole>
   <energy>
    <i name="e_fr_energy">   -503.71381760 </i>
    <i name="e_wo_entrp">   -503.72529671 </i>
    <i name="e_0_energy">   -503.71764397 </i>
   </energy>
  </scstep>
  <scstep>
   <time name="dav">  145.05   20.88</time>
   <time name="total">  170.90   27.51</time>
   <dipole>
    <v name="dipole">      0.00000000       0.00000000       0.09042519 </v>
    <i name="Tr[quadrupol]">  -7086.93831117 </i>
    <i name="Echarged">      0.00000000 </i>
    <i name="Edipol_quadrupol">      0.00000000 </i>
    <i name="Eion">      0.00000000 </i>
   </dipole>
   <energy>
    <i name="e_fr_energy">   -503.70991457 </i>
    <i name="e_wo_entrp">   -503.72184880 </i>
    <i name="e_0_energy">   -503.71389265 </i>
   </energy>
  </scstep>
  <scstep>
   <time name="dav">  191.58   27.48</time>
   <time name="total">  218.39   34.14</time>
   <dipole>
    <v name="dipole">      0.00000000       0.00000000       0.10002539 </v>
    <i name="Tr[quadrupol]">  -7086.88037822 </i>
    <i name="Echarged">      0.00000000 </i>
    <i name="Edipol_quadrupol">      0.00000000 </i>
    <i name="Eion">      0.00000000 </i>
   </dipole>
   <energy>
    <i name="e_fr_energy">   -503.70638265 </i>
    <i name="e_wo_entrp">   -503.72076052 </i>
    <i name="e_0_energy">   -503.71117528 </i>
   </energy>
  </scstep>
  <scstep>
   <time name="dav">  163.43   23.49</time>
   <time name="total">  190.04   30.22</time>
   <dipole>
    <v name="dipole">      0.00000000       0.00000000       0.09699099 </v>
    <i name="Tr[quadrupol]">  -7086.88332294 </i>
    <i name="Echarged">      0.00000000 </i>
    <i name="Edipol_quadrupol">      0.00000000 </i>
    <i name="Eion">      0.00000000 </i>
   </dipole>
   <energy>
    <i name="e_fr_energy">   -503.70490094 </i>
[...]
       <r>   -39.0479    -0.0028    39.0000 </r>
       <r>   -38.8774    -0.0000    39.0000 </r>
       <r>   -38.7070    -0.0000    39.0000 </r>
       <r>   -38.5366    -0.0000    39.0000 </r>
       <r>   -38.3661     0.0000    39.0000 </r>
       <r>   -38.1957     0.0000    39.0000 </r>
       <r>   -38.0252     0.0000    39.0000 </r>
       <r>   -37.8548     0.0000    39.0000 </r>
       <r>   -37.6844     0.0000    39.0000 </r>
       <r>   -37.5139     0.0000    39.0000 </r>
       <r>   -37.3435     0.0000    39.0000 </r>
       <r>   -37.1730     0.0000    39.0000 </r>
       <r>   -37.0026     0.0000    39.0000 </r>
       <r>   -36.8322     0.0000    39.0000 </r>
       <r>   -36.6617     0.0000    39.0000 </r>
       <r>   -36.4913     0.0000    39.0000 </r>
       <r>   -36.3209     0.0000    39.0000 </r>
       <r>   -36.1504     0.0000    39.0000 </r>
       <r>   -35.9800     0.0000    39.0000 </r>
       <r>   -35.8095     0.0000    39.0000 </r>
       <r>   -35.6391     0.0000    39.0000 </r>
       <r>   -35.4687     0.0000    39.0000 </r>
       <r>   -35.2982     0.0000    39.0000 </r>
       <r>   -35.1278     0.0000    39.0000 </r>
       <r>   -34.9574     0.0000    39.0000 </r>
       <r>   -34.7869     0.0000    39.0000 </r>
       <r>   -34.6165     0.0000    39.0000 </r>
       <r>   -34.4460     0.0000    39.0000 </r>
       <r>   -34.2756     0.0000    39.0000 </r>
       <r>   -34.1052     0.0000    39.0000 </r>
       <r>   -33.9347     0.0000    39.0000 </r>
       <r>   -33.7643     0.0000    39.0000 </r>
       <r>   -33.5939     0.0000    39.0000 </r>
       <r>   -33.4234     0.0000    39.0000 </r>
       <r>   -33.2530     0.0000    39.0000 </r>
       <r>   -33.0825     0.0000    39.0000 </r>
       <r>   -32.9121     0.0000    39.0000 </r>
       <r>   -32.7417     0.0000    39.0000 </r>
       <r>   -32.5712     0.0000    39.0000 </r>
       <r>   -32.4008     0.0000    39.0000 </r>
       <r>   -32.2303     0.0000    39.0000 </r>
       <r>   -32.0599     0.0000    39.0000 </r>
       <r>   -31.8895     0.0000    39.0000 </r>
       <r>   -31.7190     0.0000    39.0000 </r>
       <r>   -31.5486     0.0000    39.0000 </r>
       <r>   -31.3782     0.0000    39.0000 </r>
       <r>   -31.2077     0.0000    39.0000 </r>
       <r>   -31.0373     0.0000    39.0000 </r>
       <r>   -30.8668     0.0000    39.0000 </r>
       <r>   -30.6964     0.0000    39.0000 </r>
       <r>   -30.5260     0.0000    39.0000 </r>
       <r>   -30.3555     0.0000    39.0000 </r>
       <r>   -30.1851     0.0000    39.0000 </r>
       <r>   -30.0147     0.0000    39.0000 </r>
       <r>   -29.8442     0.0000    39.0000 </r>
       <r>   -29.6738     0.0000    39.0000 </r>
       <r>   -29.5033     0.0000    39.0000 </r>
       <r>   -29.3329     0.0000    39.0000 </r>
       <r>   -29.1625     0.0000    39.0000 </r>
       <r>   -28.9920     0.0000    39.0000 </r>
       <r>   -28.8216     0.0000    39.0000 </r>
       <r>   -28.6512     0.0000    39.0000 </r>
       <r>   -28.4807     0.0000    39.0000 </r>
       <r>   -28.3103     0.0000    39.0000 </r>
       <r>   -28.1398     0.0000    39.0000 </r>
       <r>   -27.9694     0.0000    39.0000 </r>
       <r>   -27.7990     0.0000    39.0000 </r>
       <r>   -27.6285     0.0000    39.0000 </r>
       <r>   -27.4581     0.0000    39.0000 </r>
       <r>   -27.2876     0.0000    39.0000 </r>
       <r>   -27.1172     0.0000    39.0000 </r>
       <r>   -26.9468     0.0000    39.0000 </r>
       <r>   -26.7763     0.0000    39.0000 </r>
       <r>   -26.6059     0.0000    39.0000 </r>
       <r>   -26.4355     0.0000    39.0000 </r>
       <r>   -26.2650     0.0000    39.0000 </r>
       <r>   -26.0946     0.0000    39.0000 </r>
       <r>   -25.9241     0.0000    39.0000 </r>
       <r>   -25.7537     0.0000    39.0000 </r>
       <r>   -25.5833     0.0000    39.0000 </r>
       <r>   -25.4128     0.0000    39.0000 </r>
       <r>   -25.2424     0.0000    39.0000 </r>
       <r>   -25.0720     0.0000    39.0000 </r>
       <r>   -24.9015     0.0000    39.0000 </r>
       <r>   -24.7311     0.0000    39.0000 </r>
       <r>   -24.5606     0.0000    39.0000 </r>
       <r>   -24.3902     0.0000    39.0000 </r>
       <r>   -24.2198     0.0000    39.0000 </r>
       <r>   -24.0493     0.0000    39.0000 </r>
       <r>   -23.8789     0.0000    39.0000 </r>
       <r>   -23.7085     0.0000    39.0000 </r>
       <r>   -23.5380     0.0000    39.0000 </r>
       <r>   -23.3676     0.0000    39.0000 </r>
       <r>   -23.1971     0.0000    39.0000 </r>
       <r>   -23.0267     0.0000    39.0000 </r>
       <r>   -22.8563     0.0000    39.0000 </r>
       <r>   -22.6858     0.0000    39.0000 </r>
       <r>   -22.5154     0.0000    39.0000 </r>
       <r>   -22.3449     0.0000    39.0000 </r>
       <r>   -22.1745     0.0000    39.0000 </r>
       <r>   -22.0041     0.0000    39.0000 </r>
       <r>   -21.8336     0.0000    39.0000 </r>
       <r>   -21.6632     0.0000    39.0000 </r>
       <r>   -21.4928     0.0000    39.0000 </r>
       <r>   -21.3223     0.0000    39.0000 </r>
       <r>   -21.1519     0.0000    39.0000 </r>
       <r>   -20.9814     0.0000    39.0000 </r>
       <r>   -20.8110     0.0000    39.0000 </r>
       <r>   -20.6406     0.0000    39.0000 </r>
       <r>   -20.4701     0.0000    39.0000 </r>
       <r>   -20.2997     0.0000    39.0000 </r>
       <r>   -20.1293     0.0000    39.0000 </r>
       <r>   -19.9588     0.0000    39.0000 </r>
       <r>   -19.7884     0.0000    39.0000 </r>
       <r>   -19.6179     0.0000    39.0000 </r>
       <r>   -19.4475     0.0000    39.0000 </r>
       <r>   -19.2771     0.0000    39.0000 </r>
       <r>   -19.1066     0.0000    39.0000 </r>
       <r>   -18.9362     0.0000    39.0000 </r>
       <r>   -18.7658     0.0000    39.0000 </r>
       <r>   -18.5953     0.0000    39.0000 </r>
       <r>   -18.4249     0.0000    39.0000 </r>
       <r>   -18.2544     0.0000    39.0000 </r>
       <r>   -18.0840     0.0000    39.0000 </r>
       <r>   -17.9136     0.0000    39.0000 </r>
       <r>   -17.7431     0.0000    39.0000 </r>
       <r>   -17.5727     0.0000    39.0000 </r>
       <r>   -17.4022     0.0000    39.0000 </r>
       <r>   -17.2318     0.0000    39.0000 </r>
       <r>   -17.0614     0.0000    39.0000 </r>
       <r>   -16.8909    -0.0000    39.0000 </r>
       <r>   -16.7205    -0.0000    39.0000 </r>
       <r>   -16.5501    -0.0000    39.0000 </r>
       <r>   -16.3796    -0.0000    39.0000 </r>
       <r>   -16.2092    -0.0000    39.0000 </r>
       <r>   -16.0387    -0.0002    39.0000 </r>
       <r>   -15.8683    -0.0752    38.9872 </r>
       <r>   -15.6979    -0.8985    38.8340 </r>
       <r>   -15.5274    14.1720    41.2494 </r>
       <r>   -15.3570    16.9670    44.1413 </r>
       <r>   -15.1866    -0.7095    44.0203 </r>
       <r>   -15.0161    -0.1189    44.0001 </r>
       <r>   -14.8457    -0.0004    44.0000 </r>
       <r>   -14.6752    -0.0000    44.0000 </r>
       <r>   -14.5048    -0.0000    44.0000 </r>
       <r>   -14.3344     0.0000    44.0000 </r>
       <r>   -14.1639     0.0000    44.0000 </r>
       <r>   -13.9935     0.0000    44.0000 </r>
       <r>   -13.8231     0.0000    44.0000 </r>
       <r>   -13.6526     0.0000    44.0000 </r>
       <r>   -13.4822     0.0000    44.0000 </r>
       <r>   -13.3117     0.0000    44.0000 </r>
       <r>   -13.1413     0.0000    44.0000 </r>
       <r>   -12.9709     0.0000    44.0000 </r>
       <r>   -12.8004     0.0000    44.0000 </r>
       <r>   -12.6300     0.0000    44.0000 </r>
       <r>   -12.4596     0.0000    44.0000 </r>
       <r>   -12.2891     0.0000    44.0000 </r>
       <r>   -12.1187     0.0000    44.0000 </r>
       <r>   -11.9482     0.0000    44.0000 </r>
       <r>   -11.7778     0.0000    44.0000 </r>
       <r>   -11.6074     0.0000    44.0000 </r>
       <r>   -11.4369     0.0000    44.0000 </r>
       <r>   -11.2665     0.0000    44.0000 </r>
       <r>   -11.0960     0.0000    44.0000 </r>
       <r>   -10.9256     0.0000    44.0000 </r>
       <r>   -10.7552     0.0000    44.0000 </r>
       <r>   -10.5847     0.0000    44.0000 </r>
       <r>   -10.4143     0.0000    44.0000 </r>
       <r>   -10.2439     0.0000    44.0000 </r>
       <r>   -10.0734     0.0000    44.0000 </r>
       <r>    -9.9030     0.0000    44.0000 </r>
       <r>    -9.7325     0.0000    44.0000 </r>
       <r>    -9.5621     0.0000    44.0000 </r>
       <r>    -9.3917     0.0000    44.0000 </r>
       <r>    -9.2212    -0.0000    44.0000 </r>
       <r>    -9.0508    -0.0000    44.0000 </r>
       <r>    -8.8804    -0.0000    44.0000 </r>
       <r>    -8.7099    -0.0000    44.0000 </r>
       <r>    -8.5395    -0.0000    44.0000 </r>
       <r>    -8.3690    -0.0001    44.0000 </r>
       <r>    -8.1986    -0.0171    43.9971 </r>
       <r>    -8.0282    -0.1648    43.9690 </r>
       <r>    -7.8577     2.9048    44.4641 </r>
       <r>    -7.6873     3.3044    45.0273 </r>
       <r>    -7.5169    -0.1366    45.0040 </r>
       <r>    -7.3464    -0.0264    44.9995 </r>
       <r>    -7.1760    -0.0287    44.9946 </r>
       <r>    -7.0055     0.3749    45.0585 </r>
       <r>    -6.8351     1.7373    45.3546 </r>
       <r>    -6.6647     1.2767    45.5722 </r>
       <r>    -6.4942     1.3811    45.8076 </r>
       <r>    -6.3238     2.5282    46.2385 </r>
       <r>    -6.1533     0.4980    46.3234 </r>
       <r>    -5.9829     1.3074    46.5462 </r>
       <r>    -5.8125     4.0017    47.2282 </r>
       <r>    -5.6420     3.8270    47.8805 </r>
       <r>    -5.4716     2.6890    48.3388 </r>
       <r>    -5.3012     3.1383    48.8737 </r>
       <r>    -5.1307     2.0982    49.2313 </r>
       <r>    -4.9603     4.2196    49.9505 </r>
       <r>    -4.7898     5.3118    50.8558 </r>
       <r>    -4.6194     3.4405    51.4422 </r>
       <r>    -4.4490     4.7379    52.2497 </r>
       <r>    -4.2785     4.4883    53.0147 </r>
       <r>    -4.1081     6.9561    54.2003 </r>
       <r>    -3.9377     7.7500    55.5212 </r>
       <r>    -3.7672     7.5164    56.8023 </r>
       <r>    -3.5968     6.3209    57.8796 </r>
       <r>    -3.4263     8.8104    59.3812 </r>
       <r>    -3.2559    11.9350    61.4154 </r>
       <r>    -3.0855    17.0257    64.3172 </r>
       <r>    -2.9150    19.7681    67.6865 </r>
       <r>    -2.7446    23.4852    71.6892 </r>
       <r>    -2.5742    18.2533    74.8003 </r>
       <r>    -2.4037    24.1102    78.9096 </r>
       <r>    -2.2333    29.6904    83.9699 </r>
       <r>    -2.0628    32.1723    89.4533 </r>
       <r>    -1.8924    34.5588    95.3434 </r>
       <r>    -1.7220    32.8377   100.9402 </r>
       <r>    -1.5515    35.3195   106.9600 </r>
       <r>    -1.3811    46.3232   114.8552 </r>
       <r>    -1.2106    53.4313   123.9620 </r>
       <r>    -1.0402    50.1498   132.5094 </r>
       <r>    -0.8698    50.5366   141.1227 </r>
       <r>    -0.6993    53.5830   150.2553 </r>
       <r>    -0.5289    61.6657   160.7655 </r>
       <r>    -0.3585    64.8244   171.8140 </r>
       <r>    -0.1880    64.5666   182.8186 </r>
       <r>    -0.0176    57.2287   192.5726 </r>
       <r>     0.1529    44.3828   200.1371 </r>
       <r>     0.3233    38.1873   206.6456 </r>
       <r>     0.4937    33.1292   212.2921 </r>
       <r>     0.6642    28.8905   217.2161 </r>
       <r>     0.8346    29.3328   222.2156 </r>
       <r>     1.0050    35.8498   228.3257 </r>
       <r>     1.1755    47.6966   236.4550 </r>
       <r>     1.3459    53.4202   245.5599 </r>
       <r>     1.5164    55.2530   254.9771 </r>
       <r>     1.6868    67.6299   266.5038 </r>
       <r>     1.8572    70.8602   278.5810 </r>
       <r>     2.0277    72.3002   290.9037 </r>
       <r>     2.1981    86.3640   305.6234 </r>
       <r>     2.3685    92.6451   321.4137 </r>
       <r>     2.5390    97.0536   337.9553 </r>
       <r>     2.7094    82.4368   352.0056 </r>
       <r>     2.8799    57.9487   361.8823 </r>
       <r>     3.0503    34.6459   367.7873 </r>
       <r>     3.2207     7.8845   369.1311 </r>
       <r>     3.3912    -0.7153   369.0092 </r>
       <r>     3.5616    -0.0535   369.0000 </r>
       <r>     3.7321    -0.0002   369.0000 </r>
       <r>     3.9025    -0.0000   369.0000 </r>
       <r>     4.0729    -0.0000   369.0000 </r>
       <r>     4.2434     0.0000   369.0000 </r>
       <r>     4.4138     0.0000   369.0000 </r>
       <r>     4.5842     0.0000   369.0000 </r>
       <r>     4.7547     0.0000   369.0000 </r>
       <r>     4.9251     0.0000   369.0000 </r>
       <r>     5.0956     0.0000   369.0000 </r>
       <r>     5.2660     0.0000   369.0000 </r>
       <r>     5.4364     0.0000   369.0000 </r>
      </set>
     </set>
    </array>
   </total>
  </dos>
 </calculation>
 <structure name="finalpos" >
  <crystal>
   <varray name="basis" >
    <v>       8.53269958       0.00000000       0.00000000 </v>
    <v>      -0.00051933       8.49699972       0.00000000 </v>
    <v>       0.00000000       0.00000000      23.59499931 </v>
   </varray>
   <i name="volume">   1710.69280467 </i>
   <varray name="rec_basis" >
    <v>       0.11719620       0.00000716       0.00000000 </v>
    <v>       0.00000000       0.11768860       0.00000000 </v>
    <v>       0.00000000       0.00000000       0.04238186 </v>
   </varray>
  </crystal>
  <varray name="positions" >
   <v>       0.00086000       0.99993000       0.24271000 </v>
   <v>       0.16629362       0.16431183       0.30348632 </v>
   <v>       0.50258983       0.16701150       0.30348611 </v>
   <v>       0.66822000       0.00107000       0.24272000 </v>
   <v>       0.83556225       0.16882101       0.30331760 </v>
   <v>       0.00044000       0.33497000       0.24240000 </v>
   <v>       0.16733478       0.50276511       0.30394695 </v>
   <v>       0.33469000       0.33305000       0.24267000 </v>
   <v>       0.50288218       0.49983814       0.30272345 </v>
   <v>       0.83212209       0.50226955       0.30205048 </v>
   <v>       0.16857802       0.83423926       0.30483494 </v>
   <v>       0.33342000       0.66555000       0.24261000 </v>
   <v>       0.83691421       0.83413972       0.30332469 </v>
   <v>       0.00064000       0.00119000       0.00199000 </v>
   <v>       0.99721599       0.00394819       0.36140875 </v>
   <v>       0.16843000       0.16962000       0.06269000 </v>
   <v>       0.33460000       0.00297000       0.00254000 </v>
   <v>       0.33701312       0.00536794       0.36249781 </v>
   <v>       0.50463000       0.16850000       0.06120000 </v>
   <v>       0.83272000       0.16670000       0.06193000 </v>
   <v>       0.00004000       0.33467000       0.00213000 </v>
   <v>       0.00792554       0.33319628       0.36075015 </v>
   <v>       0.16757000       0.49895000       0.06268000 </v>
   <v>       0.50099000       0.49896000       0.06206000 </v>
   <v>       0.83393000       0.50234000       0.06235000 </v>
   <v>       0.00121000       0.66785000       0.00188000 </v>
   <v>       0.99463189       0.66374227       0.36064385 </v>
   <v>       0.16792000       0.83462000       0.06228000 </v>
   <v>       0.33437000       0.66664000       0.00225000 </v>
   <v>       0.34052882       0.66333720       0.36160367 </v>
   <v>       0.50152000       0.83563000       0.06217000 </v>
   <v>       0.66753000       0.66705000       0.00175000 </v>
   <v>       0.66373958       0.67926095       0.36130925 </v>
   <v>       0.83293000       0.83584000       0.06235000 </v>
   <v>       0.00121000       0.00098000       0.12225000 </v>
   <v>       0.16700000       0.16811000       0.18239000 </v>
   <v>       0.33470000       0.00227000       0.12192000 </v>
   <v>       0.50174000       0.16716000       0.18263000 </v>
   <v>       0.83421000       0.16639000       0.18283000 </v>
   <v>       0.16964000       0.49868000       0.18209000 </v>
   <v>       0.50219000       0.50081000       0.18317000 </v>
   <v>       0.66741000       0.33395000       0.12233000 </v>
   <v>       0.83134000       0.50253000       0.18283000 </v>
   <v>       0.00132000       0.66795000       0.12253000 </v>
   <v>       0.16898000       0.83509000       0.18243000 </v>
   <v>       0.33446000       0.66703000       0.12223000 </v>
   <v>       0.49971000       0.83538000       0.18278000 </v>
   <v>       0.66698000       0.66840000       0.12259000 </v>
   <v>       0.83488000       0.83403000       0.18294000 </v>
   <v>       0.33558000       0.99863000       0.24353000 </v>
   <v>       0.66801000       0.33262000       0.24229000 </v>
   <v>       0.00448000       0.66739000       0.24217000 </v>
   <v>       0.49556735       0.83404914       0.30120377 </v>
   <v>       0.66521000       0.67351000       0.24327000 </v>
   <v>       0.66620000       0.99680000       0.00000000 </v>
   <v>       0.66787532       0.98978579       0.36338137 </v>
   <v>       0.33213000       0.33386000       0.00135000 </v>
   <v>       0.32455453       0.33256390       0.36435065 </v>
   <v>       0.67040000       0.33673000       0.00321000 </v>
   <v>       0.66728000       0.99998000       0.12246000 </v>
   <v>       0.99806000       0.33495000       0.12235000 </v>
   <v>       0.33675000       0.33238000       0.12261000 </v>
   <v>       0.67241174       0.34177378       0.39357448 </v>
  </varray>
  <varray name="selective"  type="logical" >
   <v type="logical" >  F  F  F </v>
   <v type="logical" >  T  T  T </v>
   <v type="logical" >  T  T  T </v>
   <v type="logical" >  F  F  F </v>
   <v type="logical" >  T  T  T </v>
   <v type="logical" >  F  F  F </v>
   <v type="logical" >  T  T  T </v>
   <v type="logical" >  F  F  F </v>
   <v type="logical" >  T  T  T </v>
   <v type="logical" >  T  T  T </v>
   <v type="logical" >  T  T  T </v>
   <v type="logical" >  F  F  F </v>
   <v type="logical" >  T  T  T </v>
   <v type="logical" >  F  F  F </v>
   <v type="logical" >  T  T  T </v>
   <v type="logical" >  F  F  F </v>
   <v type="logical" >  F  F  F </v>
   <v type="logical" >  T  T  T </v>
   <v type="logical" >  F  F  F </v>
   <v type="logical" >  F  F  F </v>
   <v type="logical" >  F  F  F </v>
   <v type="logical" >  T  T  T </v>
   <v type="logical" >  F  F  F </v>
   <v type="logical" >  F  F  F </v>
   <v type="logical" >  F  F  F </v>
   <v type="logical" >  F  F  F </v>
   <v type="logical" >  T  T  T </v>
   <v type="logical" >  F  F  F </v>
   <v type="logical" >  F  F  F </v>
   <v type="logical" >  T  T  T </v>
   <v type="logical" >  F  F  F </v>
   <v type="logical" >  F  F  F </v>
   <v type="logical" >  T  T  T </v>
   <v type="logical" >  F  F  F </v>
   <v type="logical" >  F  F  F </v>
   <v type="logical" >  F  F  F </v>
   <v type="logical" >  F  F  F </v>
   <v type="logical" >  F  F  F </v>
   <v type="logical" >  F  F  F </v>
   <v type="logical" >  F  F  F </v>
   <v type="logical" >  F  F  F </v>
   <v type="logical" >  F  F  F </v>
   <v type="logical" >  F  F  F </v>
   <v type="logical" >  F  F  F </v>
   <v type="logical" >  F  F  F </v>
   <v type="logical" >  F  F  F </v>
   <v type="logical" >  F  F  F </v>
   <v type="logical" >  F  F  F </v>
   <v type="logical" >  F  F  F </v>
   <v type="logical" >  F  F  F </v>
   <v type="logical" >  F  F  F </v>
   <v type="logical" >  F  F  F </v>
   <v type="logical" >  T  T  T </v>
   <v type="logical" >  F  F  F </v>
   <v type="logical" >  F  F  F </v>
   <v type="logical" >  T  T  T </v>
   <v type="logical" >  F  F  F </v>
   <v type="logical" >  T  T  T </v>
   <v type="logical" >  F  F  F </v>
   <v type="logical" >  F  F  F </v>
   <v type="logical" >  F  F  F </v>
   <v type="logical" >  F  F  F </v>
   <v type="logical" >  T  T  T </v>
  </varray>
  <nose>
   <v>      -3.00000000       0.00000000       0.00010000       0.00010000 </v>
  </nose>
 </structure>
</modeling>
