ni3al                                   
           1
     8.532700    0.000000    0.000000
    -0.000519    8.497000    0.000000
     0.000000    0.000000   23.594999
   Fe   Cr   Pb
    49    13     1
Direct configuration=     1
   0.00086000  0.99993000  0.24271000
   0.16615160  0.16511008  0.30347168
   0.50665875  0.17101846  0.30449006
   0.66822000  0.00107000  0.24272000
   0.83369059  0.17159554  0.30349425
   0.00044000  0.33497000  0.24240000
   0.16637229  0.50100932  0.30416942
   0.33469000  0.33305000  0.24267000
   0.50417829  0.49833863  0.30292644
   0.82946616  0.49883706  0.30295867
   0.16855964  0.83458073  0.30469043
   0.33342000  0.66555000  0.24261000
   0.83582244  0.83262335  0.30368920
   0.00064000  0.00119000  0.00199000
   0.99643848  0.00394148  0.36126548
   0.16843000  0.16962000  0.06269000
   0.33460000  0.00297000  0.00254000
   0.33732413  0.00662429  0.36201239
   0.50463000  0.16850000  0.06120000
   0.83272000  0.16670000  0.06193000
   0.00004000  0.33467000  0.00213000
   0.00490451  0.33221797  0.36068329
   0.16757000  0.49895000  0.06268000
   0.50099000  0.49896000  0.06206000
   0.83393000  0.50234000  0.06235000
   0.00121000  0.66785000  0.00188000
   0.99553919  0.66398904  0.36014185
   0.16792000  0.83462000  0.06228000
   0.33437000  0.66664000  0.00225000
   0.33915947  0.66201745  0.36149755
   0.50152000  0.83563000  0.06217000
   0.66753000  0.66705000  0.00175000
   0.66272101  0.67309315  0.36099833
   0.83293000  0.83584000  0.06235000
   0.00121000  0.00098000  0.12225000
   0.16700000  0.16811000  0.18239000
   0.33470000  0.00227000  0.12192000
   0.50174000  0.16716000  0.18263000
   0.83421000  0.16639000  0.18283000
   0.16964000  0.49868000  0.18209000
   0.50219000  0.50081000  0.18317000
   0.66741000  0.33395000  0.12233000
   0.83134000  0.50253000  0.18283000
   0.00132000  0.66795000  0.12253000
   0.16898000  0.83509000  0.18243000
   0.33446000  0.66703000  0.12223000
   0.49971000  0.83538000  0.18278000
   0.66698000  0.66840000  0.12259000
   0.83488000  0.83403000  0.18294000
   0.33558000  0.99863000  0.24353000
   0.66801000  0.33262000  0.24229000
   0.00448000  0.66739000  0.24217000
   0.49635414  0.83421436  0.30120319
   0.66521000  0.67351000  0.24327000
   0.66620000  0.99680000  0.00000000
   0.66783683  0.99448462  0.36260661
   0.33213000  0.33386000  0.00135000
   0.33100801  0.33263928  0.36350500
   0.67040000  0.33673000  0.00321000
   0.66728000  0.99998000  0.12246000
   0.99806000  0.33495000  0.12235000
   0.33675000  0.33238000  0.12261000
   0.50666000  0.17102000  0.42000000
Direct configuration=     2
   0.00086000  0.99993000  0.24271000
   0.16596239  0.16518457  0.30340163
   0.50735030  0.17145925  0.30347060
   0.66822000  0.00107000  0.24272000
   0.83310213  0.17111643  0.30361735
   0.00044000  0.33497000  0.24240000
   0.16645672  0.50129278  0.30413289
   0.33469000  0.33305000  0.24267000
   0.50392099  0.49775983  0.30305674
   0.82982607  0.49928073  0.30291069
   0.16872032  0.83488331  0.30484443
   0.33342000  0.66555000  0.24261000
   0.83588294  0.83280121  0.30359141
   0.00064000  0.00119000  0.00199000
   0.99637742  0.00383296  0.36128757
   0.16843000  0.16962000  0.06269000
   0.33460000  0.00297000  0.00254000
   0.32902575 -0.00193168  0.35924448
   0.50463000  0.16850000  0.06120000
   0.83272000  0.16670000  0.06193000
   0.00004000  0.33467000  0.00213000
   0.00522056  0.33231500  0.36082283
   0.16757000  0.49895000  0.06268000
   0.50099000  0.49896000  0.06206000
   0.83393000  0.50234000  0.06235000
   0.00121000  0.66785000  0.00188000
   0.99554846  0.66382771  0.36011848
   0.16792000  0.83462000  0.06228000
   0.33437000  0.66664000  0.00225000
   0.33904136  0.66202466  0.36144657
   0.50152000  0.83563000  0.06217000
   0.66753000  0.66705000  0.00175000
   0.66275582  0.67361816  0.36104705
   0.83293000  0.83584000  0.06235000
   0.00121000  0.00098000  0.12225000
   0.16700000  0.16811000  0.18239000
   0.33470000  0.00227000  0.12192000
   0.50174000  0.16716000  0.18263000
   0.83421000  0.16639000  0.18283000
   0.16964000  0.49868000  0.18209000
   0.50219000  0.50081000  0.18317000
   0.66741000  0.33395000  0.12233000
   0.83134000  0.50253000  0.18283000
   0.00132000  0.66795000  0.12253000
   0.16898000  0.83509000  0.18243000
   0.33446000  0.66703000  0.12223000
   0.49971000  0.83538000  0.18278000
   0.66698000  0.66840000  0.12259000
   0.83488000  0.83403000  0.18294000
   0.33558000  0.99863000  0.24353000
   0.66801000  0.33262000  0.24229000
   0.00448000  0.66739000  0.24217000
   0.49642628  0.83507303  0.30173279
   0.66521000  0.67351000  0.24327000
   0.66620000  0.99680000  0.00000000
   0.67651202  0.98446673  0.35960799
   0.33213000  0.33386000  0.00135000
   0.32043689  0.34195820  0.36053343
   0.67040000  0.33673000  0.00321000
   0.66728000  0.99998000  0.12246000
   0.99806000  0.33495000  0.12235000
   0.33675000  0.33238000  0.12261000
   0.51662587  0.17914146  0.42881196
Direct configuration=     3
   0.00086000  0.99993000  0.24271000
   0.16595015  0.16518939  0.30339710
   0.50739502  0.17148776  0.30340467
   0.66822000  0.00107000  0.24272000
   0.83306408  0.17108545  0.30362532
   0.00044000  0.33497000  0.24240000
   0.16646218  0.50131111  0.30413053
   0.33469000  0.33305000  0.24267000
   0.50390435  0.49772240  0.30306517
   0.82984934  0.49930942  0.30290759
   0.16873071  0.83490288  0.30485439
   0.33342000  0.66555000  0.24261000
   0.83588686  0.83281271  0.30358509
   0.00064000  0.00119000  0.00199000
   0.99637347  0.00382594  0.36128900
   0.16843000  0.16962000  0.06269000
   0.33460000  0.00297000  0.00254000
   0.32848911 -0.00248498  0.35906549
   0.50463000  0.16850000  0.06120000
   0.83272000  0.16670000  0.06193000
   0.00004000  0.33467000  0.00213000
   0.00524100  0.33232127  0.36083185
   0.16757000  0.49895000  0.06268000
   0.50099000  0.49896000  0.06206000
   0.83393000  0.50234000  0.06235000
   0.00121000  0.66785000  0.00188000
   0.99554906  0.66381727  0.36011697
   0.16792000  0.83462000  0.06228000
   0.33437000  0.66664000  0.00225000
   0.33903373  0.66202513  0.36144328
   0.50152000  0.83563000  0.06217000
   0.66753000  0.66705000  0.00175000
   0.66275807  0.67365211  0.36105020
   0.83293000  0.83584000  0.06235000
   0.00121000  0.00098000  0.12225000
   0.16700000  0.16811000  0.18239000
   0.33470000  0.00227000  0.12192000
   0.50174000  0.16716000  0.18263000
   0.83421000  0.16639000  0.18283000
   0.16964000  0.49868000  0.18209000
   0.50219000  0.50081000  0.18317000
   0.66741000  0.33395000  0.12233000
   0.83134000  0.50253000  0.18283000
   0.00132000  0.66795000  0.12253000
   0.16898000  0.83509000  0.18243000
   0.33446000  0.66703000  0.12223000
   0.49971000  0.83538000  0.18278000
   0.66698000  0.66840000  0.12259000
   0.83488000  0.83403000  0.18294000
   0.33558000  0.99863000  0.24353000
   0.66801000  0.33262000  0.24229000
   0.00448000  0.66739000  0.24217000
   0.49643095  0.83512856  0.30176703
   0.66521000  0.67351000  0.24327000
   0.66620000  0.99680000  0.00000000
   0.67707303  0.98381888  0.35941407
   0.33213000  0.33386000  0.00135000
   0.31975327  0.34256084  0.36034126
   0.67040000  0.33673000  0.00321000
   0.66728000  0.99998000  0.12246000
   0.99806000  0.33495000  0.12235000
   0.33675000  0.33238000  0.12261000
   0.51727035  0.17966666  0.42938182
Direct configuration=     4
   0.00086000  0.99993000  0.24271000
   0.16537769  0.16489813  0.30304504
   0.50730270  0.17143988  0.30404143
   0.66822000  0.00107000  0.24272000
   0.83280745  0.17145630  0.30373841
   0.00044000  0.33497000  0.24240000
   0.16483673  0.50324042  0.30355200
   0.33469000  0.33305000  0.24267000
   0.50446484  0.49749391  0.30315962
   0.83009884  0.49953770  0.30286245
   0.16739076  0.83363801  0.30434923
   0.33342000  0.66555000  0.24261000
   0.83756031  0.83140196  0.30302037
   0.00064000  0.00119000  0.00199000
   0.99622268  0.00394747  0.36132777
   0.16843000  0.16962000  0.06269000
   0.33460000  0.00297000  0.00254000
   0.32950999 -0.00160490  0.35983308
   0.50463000  0.16850000  0.06120000
   0.83272000  0.16670000  0.06193000
   0.00004000  0.33467000  0.00213000
   0.00491523  0.33243754  0.36094545
   0.16757000  0.49895000  0.06268000
   0.50099000  0.49896000  0.06206000
   0.83393000  0.50234000  0.06235000
   0.00121000  0.66785000  0.00188000
   0.99545461  0.66362730  0.36014514
   0.16792000  0.83462000  0.06228000
   0.33437000  0.66664000  0.00225000
   0.33899720  0.66207897  0.36145623
   0.50152000  0.83563000  0.06217000
   0.66753000  0.66705000  0.00175000
   0.66290640  0.67346355  0.36110344
   0.83293000  0.83584000  0.06235000
   0.00121000  0.00098000  0.12225000
   0.16700000  0.16811000  0.18239000
   0.33470000  0.00227000  0.12192000
   0.50174000  0.16716000  0.18263000
   0.83421000  0.16639000  0.18283000
   0.16964000  0.49868000  0.18209000
   0.50219000  0.50081000  0.18317000
   0.66741000  0.33395000  0.12233000
   0.83134000  0.50253000  0.18283000
   0.00132000  0.66795000  0.12253000
   0.16898000  0.83509000  0.18243000
   0.33446000  0.66703000  0.12223000
   0.49971000  0.83538000  0.18278000
   0.66698000  0.66840000  0.12259000
   0.83488000  0.83403000  0.18294000
   0.33558000  0.99863000  0.24353000
   0.66801000  0.33262000  0.24229000
   0.00448000  0.66739000  0.24217000
   0.49656521  0.83525923  0.30177089
   0.66521000  0.67351000  0.24327000
   0.66620000  0.99680000  0.00000000
   0.67673111  0.98312199  0.35933417
   0.33213000  0.33386000  0.00135000
   0.31944893  0.34202313  0.36054954
   0.67040000  0.33673000  0.00321000
   0.66728000  0.99998000  0.12246000
   0.99806000  0.33495000  0.12235000
   0.33675000  0.33238000  0.12261000
   0.51931697  0.18155510  0.43006774
Direct configuration=     5
   0.00086000  0.99993000  0.24271000
   0.16416540  0.16428134  0.30229950
   0.50710720  0.17133849  0.30538987
   0.66822000  0.00107000  0.24272000
   0.83226400  0.17224166  0.30397790
   0.00044000  0.33497000  0.24240000
   0.16139455  0.50732612  0.30232686
   0.33469000  0.33305000  0.24267000
   0.50565178  0.49701003  0.30335964
   0.83062719  0.50002114  0.30276687
   0.16455316  0.83095941  0.30327946
   0.33342000  0.66555000  0.24261000
   0.84110416  0.82841444  0.30182448
   0.00064000  0.00119000  0.00199000
   0.99590338  0.00420482  0.36140988
   0.16843000  0.16962000  0.06269000
   0.33460000  0.00297000  0.00254000
   0.33167189  0.00025885  0.36145859
   0.50463000  0.16850000  0.06120000
   0.83272000  0.16670000  0.06193000
   0.00004000  0.33467000  0.00213000
   0.00422534  0.33268377  0.36118601
   0.16757000  0.49895000  0.06268000
   0.50099000  0.49896000  0.06206000
   0.83393000  0.50234000  0.06235000
   0.00121000  0.66785000  0.00188000
   0.99525459  0.66322500  0.36020478
   0.16792000  0.83462000  0.06228000
   0.33437000  0.66664000  0.00225000
   0.33891984  0.66219298  0.36148367
   0.50152000  0.83563000  0.06217000
   0.66753000  0.66705000  0.00175000
   0.66322051  0.67306421  0.36121618
   0.83293000  0.83584000  0.06235000
   0.00121000  0.00098000  0.12225000
   0.16700000  0.16811000  0.18239000
   0.33470000  0.00227000  0.12192000
   0.50174000  0.16716000  0.18263000
   0.83421000  0.16639000  0.18283000
   0.16964000  0.49868000  0.18209000
   0.50219000  0.50081000  0.18317000
   0.66741000  0.33395000  0.12233000
   0.83134000  0.50253000  0.18283000
   0.00132000  0.66795000  0.12253000
   0.16898000  0.83509000  0.18243000
   0.33446000  0.66703000  0.12223000
   0.49971000  0.83538000  0.18278000
   0.66698000  0.66840000  0.12259000
   0.83488000  0.83403000  0.18294000
   0.33558000  0.99863000  0.24353000
   0.66801000  0.33262000  0.24229000
   0.00448000  0.66739000  0.24217000
   0.49684952  0.83553594  0.30177906
   0.66521000  0.67351000  0.24327000
   0.66620000  0.99680000  0.00000000
   0.67600702  0.98164618  0.35916495
   0.33213000  0.33386000  0.00135000
   0.31880445  0.34088442  0.36099060
   0.67040000  0.33673000  0.00321000
   0.66728000  0.99998000  0.12246000
   0.99806000  0.33495000  0.12235000
   0.33675000  0.33238000  0.12261000
   0.52365108  0.18555421  0.43152032
Direct configuration=     6
   0.00086000  0.99993000  0.24271000
   0.16460900  0.16450703  0.30257231
   0.50717873  0.17137559  0.30489645
   0.66822000  0.00107000  0.24272000
   0.83246286  0.17195429  0.30389027
   0.00044000  0.33497000  0.24240000
   0.16265410  0.50583110  0.30277516
   0.33469000  0.33305000  0.24267000
   0.50521746  0.49718709  0.30328645
   0.83043386  0.49984424  0.30280185
   0.16559148  0.83193955  0.30367091
   0.33342000  0.66555000  0.24261000
   0.83980741  0.82950762  0.30226208
   0.00064000  0.00119000  0.00199000
   0.99602022  0.00411065  0.36137984
   0.16843000  0.16962000  0.06269000
   0.33460000  0.00297000  0.00254000
   0.33088082 -0.00042313  0.36086379
   0.50463000  0.16850000  0.06120000
   0.83272000  0.16670000  0.06193000
   0.00004000  0.33467000  0.00213000
   0.00447778  0.33259367  0.36109799
   0.16757000  0.49895000  0.06268000
   0.50099000  0.49896000  0.06206000
   0.83393000  0.50234000  0.06235000
   0.00121000  0.66785000  0.00188000
   0.99532778  0.66337220  0.36018296
   0.16792000  0.83462000  0.06228000
   0.33437000  0.66664000  0.00225000
   0.33894815  0.66215126  0.36147363
   0.50152000  0.83563000  0.06217000
   0.66753000  0.66705000  0.00175000
   0.66310557  0.67321034  0.36117492
   0.83293000  0.83584000  0.06235000
   0.00121000  0.00098000  0.12225000
   0.16700000  0.16811000  0.18239000
   0.33470000  0.00227000  0.12192000
   0.50174000  0.16716000  0.18263000
   0.83421000  0.16639000  0.18283000
   0.16964000  0.49868000  0.18209000
   0.50219000  0.50081000  0.18317000
   0.66741000  0.33395000  0.12233000
   0.83134000  0.50253000  0.18283000
   0.00132000  0.66795000  0.12253000
   0.16898000  0.83509000  0.18243000
   0.33446000  0.66703000  0.12223000
   0.49971000  0.83538000  0.18278000
   0.66698000  0.66840000  0.12259000
   0.83488000  0.83403000  0.18294000
   0.33558000  0.99863000  0.24353000
   0.66801000  0.33262000  0.24229000
   0.00448000  0.66739000  0.24217000
   0.49674549  0.83543469  0.30177607
   0.66521000  0.67351000  0.24327000
   0.66620000  0.99680000  0.00000000
   0.67627198  0.98218620  0.35922687
   0.33213000  0.33386000  0.00135000
   0.31904028  0.34130109  0.36082921
   0.67040000  0.33673000  0.00321000
   0.66728000  0.99998000  0.12246000
   0.99806000  0.33495000  0.12235000
   0.33675000  0.33238000  0.12261000
   0.52206516  0.18409087  0.43098880
Direct configuration=     7
   0.00086000  0.99993000  0.24271000
   0.16467558  0.16431684  0.30269949
   0.50680762  0.17099509  0.30561236
   0.66822000  0.00107000  0.24272000
   0.83214162  0.17212224  0.30404092
   0.00044000  0.33497000  0.24240000
   0.16250245  0.50538753  0.30265313
   0.33469000  0.33305000  0.24267000
   0.50534656  0.49698480  0.30342723
   0.83042550  0.49962098  0.30275679
   0.16646463  0.83282818  0.30377592
   0.33342000  0.66555000  0.24261000
   0.83966565  0.82911844  0.30202230
   0.00064000  0.00119000  0.00199000
   0.99577277  0.00401967  0.36119997
   0.16843000  0.16962000  0.06269000
   0.33460000  0.00297000  0.00254000
   0.33131398  0.00031010  0.36118334
   0.50463000  0.16850000  0.06120000
   0.83272000  0.16670000  0.06193000
   0.00004000  0.33467000  0.00213000
   0.00457714  0.33295647  0.36097552
   0.16757000  0.49895000  0.06268000
   0.50099000  0.49896000  0.06206000
   0.83393000  0.50234000  0.06235000
   0.00121000  0.66785000  0.00188000
   0.99506838  0.66312945  0.36054613
   0.16792000  0.83462000  0.06228000
   0.33437000  0.66664000  0.00225000
   0.33854830  0.66217027  0.36126926
   0.50152000  0.83563000  0.06217000
   0.66753000  0.66705000  0.00175000
   0.66366486  0.67320419  0.36110198
   0.83293000  0.83584000  0.06235000
   0.00121000  0.00098000  0.12225000
   0.16700000  0.16811000  0.18239000
   0.33470000  0.00227000  0.12192000
   0.50174000  0.16716000  0.18263000
   0.83421000  0.16639000  0.18283000
   0.16964000  0.49868000  0.18209000
   0.50219000  0.50081000  0.18317000
   0.66741000  0.33395000  0.12233000
   0.83134000  0.50253000  0.18283000
   0.00132000  0.66795000  0.12253000
   0.16898000  0.83509000  0.18243000
   0.33446000  0.66703000  0.12223000
   0.49971000  0.83538000  0.18278000
   0.66698000  0.66840000  0.12259000
   0.83488000  0.83403000  0.18294000
   0.33558000  0.99863000  0.24353000
   0.66801000  0.33262000  0.24229000
   0.00448000  0.66739000  0.24217000
   0.49633028  0.83558828  0.30190171
   0.66521000  0.67351000  0.24327000
   0.66620000  0.99680000  0.00000000
   0.67610489  0.98154053  0.35923545
   0.33213000  0.33386000  0.00135000
   0.31809623  0.34102111  0.36095876
   0.67040000  0.33673000  0.00321000
   0.66728000  0.99998000  0.12246000
   0.99806000  0.33495000  0.12235000
   0.33675000  0.33238000  0.12261000
   0.52523551  0.18655981  0.43145932
Direct configuration=     8
   0.00086000  0.99993000  0.24271000
   0.16486488  0.16377608  0.30306111
   0.50575244  0.16991323  0.30764785
   0.66822000  0.00107000  0.24272000
   0.83122827  0.17259978  0.30446926
   0.00044000  0.33497000  0.24240000
   0.16207126  0.50412636  0.30230619
   0.33469000  0.33305000  0.24267000
   0.50571361  0.49640966  0.30382753
   0.83040175  0.49898620  0.30262867
   0.16894722  0.83535479  0.30407452
   0.33342000  0.66555000  0.24261000
   0.83926260  0.82801191  0.30134055
   0.00064000  0.00119000  0.00199000
   0.99506922  0.00376097  0.36068855
   0.16843000  0.16962000  0.06269000
   0.33460000  0.00297000  0.00254000
   0.33254557  0.00239483  0.36209191
   0.50463000  0.16850000  0.06120000
   0.83272000  0.16670000  0.06193000
   0.00004000  0.33467000  0.00213000
   0.00485965  0.33398799  0.36062733
   0.16757000  0.49895000  0.06268000
   0.50099000  0.49896000  0.06206000
   0.83393000  0.50234000  0.06235000
   0.00121000  0.66785000  0.00188000
   0.99433084  0.66243924  0.36157873
   0.16792000  0.83462000  0.06228000
   0.33437000  0.66664000  0.00225000
   0.33741143  0.66222434  0.36068820
   0.50152000  0.83563000  0.06217000
   0.66753000  0.66705000  0.00175000
   0.66525507  0.67318670  0.36089458
   0.83293000  0.83584000  0.06235000
   0.00121000  0.00098000  0.12225000
   0.16700000  0.16811000  0.18239000
   0.33470000  0.00227000  0.12192000
   0.50174000  0.16716000  0.18263000
   0.83421000  0.16639000  0.18283000
   0.16964000  0.49868000  0.18209000
   0.50219000  0.50081000  0.18317000
   0.66741000  0.33395000  0.12233000
   0.83134000  0.50253000  0.18283000
   0.00132000  0.66795000  0.12253000
   0.16898000  0.83509000  0.18243000
   0.33446000  0.66703000  0.12223000
   0.49971000  0.83538000  0.18278000
   0.66698000  0.66840000  0.12259000
   0.83488000  0.83403000  0.18294000
   0.33558000  0.99863000  0.24353000
   0.66801000  0.33262000  0.24229000
   0.00448000  0.66739000  0.24217000
   0.49514973  0.83602500  0.30225896
   0.66521000  0.67351000  0.24327000
   0.66620000  0.99680000  0.00000000
   0.67562981  0.97970470  0.35925985
   0.33213000  0.33386000  0.00135000
   0.31541204  0.34022508  0.36132711
   0.67040000  0.33673000  0.00321000
   0.66728000  0.99998000  0.12246000
   0.99806000  0.33495000  0.12235000
   0.33675000  0.33238000  0.12261000
   0.53424963  0.19357964  0.43279714
Direct configuration=     9
   0.00086000  0.99993000  0.24271000
   0.16509918  0.16382699  0.30319490
   0.50557472  0.16970819  0.30798944
   0.66822000  0.00107000  0.24272000
   0.83068772  0.17243682  0.30446547
   0.00044000  0.33497000  0.24240000
   0.16262133  0.50428798  0.30251977
   0.33469000  0.33305000  0.24267000
   0.50533016  0.49601713  0.30398702
   0.83059706  0.49906697  0.30270790
   0.16879763  0.83529495  0.30441259
   0.33342000  0.66555000  0.24261000
   0.83913880  0.82826658  0.30165700
   0.00064000  0.00119000  0.00199000
   0.99456782  0.00298745  0.36052264
   0.16843000  0.16962000  0.06269000
   0.33460000  0.00297000  0.00254000
   0.33337038  0.00393075  0.36271130
   0.50463000  0.16850000  0.06120000
   0.83272000  0.16670000  0.06193000
   0.00004000  0.33467000  0.00213000
   0.00491873  0.33460786  0.36063616
   0.16757000  0.49895000  0.06268000
   0.50099000  0.49896000  0.06206000
   0.83393000  0.50234000  0.06235000
   0.00121000  0.66785000  0.00188000
   0.99388561  0.66210089  0.36140340
   0.16792000  0.83462000  0.06228000
   0.33437000  0.66664000  0.00225000
   0.33643042  0.66203868  0.36054957
   0.50152000  0.83563000  0.06217000
   0.66753000  0.66705000  0.00175000
   0.66617919  0.67322910  0.36079138
   0.83293000  0.83584000  0.06235000
   0.00121000  0.00098000  0.12225000
   0.16700000  0.16811000  0.18239000
   0.33470000  0.00227000  0.12192000
   0.50174000  0.16716000  0.18263000
   0.83421000  0.16639000  0.18283000
   0.16964000  0.49868000  0.18209000
   0.50219000  0.50081000  0.18317000
   0.66741000  0.33395000  0.12233000
   0.83134000  0.50253000  0.18283000
   0.00132000  0.66795000  0.12253000
   0.16898000  0.83509000  0.18243000
   0.33446000  0.66703000  0.12223000
   0.49971000  0.83538000  0.18278000
   0.66698000  0.66840000  0.12259000
   0.83488000  0.83403000  0.18294000
   0.33558000  0.99863000  0.24353000
   0.66801000  0.33262000  0.24229000
   0.00448000  0.66739000  0.24217000
   0.49537894  0.83594588  0.30225948
   0.66521000  0.67351000  0.24327000
   0.66620000  0.99680000  0.00000000
   0.67529061  0.97959510  0.35949432
   0.33213000  0.33386000  0.00135000
   0.31557031  0.33954310  0.36187322
   0.67040000  0.33673000  0.00321000
   0.66728000  0.99998000  0.12246000
   0.99806000  0.33495000  0.12235000
   0.33675000  0.33238000  0.12261000
   0.53914837  0.19779960  0.43256073
Direct configuration=    10
   0.00086000  0.99993000  0.24271000
   0.16580208  0.16397974  0.30359625
   0.50504155  0.16909307  0.30901421
   0.66822000  0.00107000  0.24272000
   0.82906606  0.17194792  0.30445410
   0.00044000  0.33497000  0.24240000
   0.16427152  0.50477286  0.30316051
   0.33469000  0.33305000  0.24267000
   0.50417981  0.49483954  0.30446549
   0.83118301  0.49930927  0.30294561
   0.16834887  0.83511543  0.30542680
   0.33342000  0.66555000  0.24261000
   0.83876741  0.82903060  0.30260636
   0.00064000  0.00119000  0.00199000
   0.99306362  0.00066689  0.36002494
   0.16843000  0.16962000  0.06269000
   0.33460000  0.00297000  0.00254000
   0.33584481  0.00853851  0.36456947
   0.50463000  0.16850000  0.06120000
   0.83272000  0.16670000  0.06193000
   0.00004000  0.33467000  0.00213000
   0.00509598  0.33646747  0.36066264
   0.16757000  0.49895000  0.06268000
   0.50099000  0.49896000  0.06206000
   0.83393000  0.50234000  0.06235000
   0.00121000  0.66785000  0.00188000
   0.99254991  0.66108582  0.36087740
   0.16792000  0.83462000  0.06228000
   0.33437000  0.66664000  0.00225000
   0.33348740  0.66148170  0.36013368
   0.50152000  0.83563000  0.06217000
   0.66753000  0.66705000  0.00175000
   0.66895152  0.67335628  0.36048175
   0.83293000  0.83584000  0.06235000
   0.00121000  0.00098000  0.12225000
   0.16700000  0.16811000  0.18239000
   0.33470000  0.00227000  0.12192000
   0.50174000  0.16716000  0.18263000
   0.83421000  0.16639000  0.18283000
   0.16964000  0.49868000  0.18209000
   0.50219000  0.50081000  0.18317000
   0.66741000  0.33395000  0.12233000
   0.83134000  0.50253000  0.18283000
   0.00132000  0.66795000  0.12253000
   0.16898000  0.83509000  0.18243000
   0.33446000  0.66703000  0.12223000
   0.49971000  0.83538000  0.18278000
   0.66698000  0.66840000  0.12259000
   0.83488000  0.83403000  0.18294000
   0.33558000  0.99863000  0.24353000
   0.66801000  0.33262000  0.24229000
   0.00448000  0.66739000  0.24217000
   0.49606657  0.83570853  0.30226104
   0.66521000  0.67351000  0.24327000
   0.66620000  0.99680000  0.00000000
   0.67427299  0.97926631  0.36019775
   0.33213000  0.33386000  0.00135000
   0.31604513  0.33749716  0.36351154
   0.67040000  0.33673000  0.00321000
   0.66728000  0.99998000  0.12246000
   0.99806000  0.33495000  0.12235000
   0.33675000  0.33238000  0.12261000
   0.55384457  0.21045949  0.43185151
Direct configuration=    11
   0.00086000  0.99993000  0.24271000
   0.16584249  0.16413506  0.30369129
   0.50510898  0.16909397  0.30883955
   0.66822000  0.00107000  0.24272000
   0.82903789  0.17204108  0.30447754
   0.00044000  0.33497000  0.24240000
   0.16466767  0.50435376  0.30316924
   0.33469000  0.33305000  0.24267000
   0.50401600  0.49459912  0.30458333
   0.83105966  0.49912830  0.30280161
   0.16846400  0.83532107  0.30544309
   0.33342000  0.66555000  0.24261000
   0.83863300  0.82944374  0.30253673
   0.00064000  0.00119000  0.00199000
   0.99293728  0.00047079  0.36019404
   0.16843000  0.16962000  0.06269000
   0.33460000  0.00297000  0.00254000
   0.33642923  0.00941040  0.36482592
   0.50463000  0.16850000  0.06120000
   0.83272000  0.16670000  0.06193000
   0.00004000  0.33467000  0.00213000
   0.00506332  0.33652168  0.36076765
   0.16757000  0.49895000  0.06268000
   0.50099000  0.49896000  0.06206000
   0.83393000  0.50234000  0.06235000
   0.00121000  0.66785000  0.00188000
   0.99234221  0.66085997  0.36085810
   0.16792000  0.83462000  0.06228000
   0.33437000  0.66664000  0.00225000
   0.33320451  0.66150780  0.36035907
   0.50152000  0.83563000  0.06217000
   0.66753000  0.66705000  0.00175000
   0.66913571  0.67312508  0.36059011
   0.83293000  0.83584000  0.06235000
   0.00121000  0.00098000  0.12225000
   0.16700000  0.16811000  0.18239000
   0.33470000  0.00227000  0.12192000
   0.50174000  0.16716000  0.18263000
   0.83421000  0.16639000  0.18283000
   0.16964000  0.49868000  0.18209000
   0.50219000  0.50081000  0.18317000
   0.66741000  0.33395000  0.12233000
   0.83134000  0.50253000  0.18283000
   0.00132000  0.66795000  0.12253000
   0.16898000  0.83509000  0.18243000
   0.33446000  0.66703000  0.12223000
   0.49971000  0.83538000  0.18278000
   0.66698000  0.66840000  0.12259000
   0.83488000  0.83403000  0.18294000
   0.33558000  0.99863000  0.24353000
   0.66801000  0.33262000  0.24229000
   0.00448000  0.66739000  0.24217000
   0.49612360  0.83563593  0.30231273
   0.66521000  0.67351000  0.24327000
   0.66620000  0.99680000  0.00000000
   0.67384484  0.97923338  0.36035431
   0.33213000  0.33386000  0.00135000
   0.31608114  0.33731401  0.36385147
   0.67040000  0.33673000  0.00321000
   0.66728000  0.99998000  0.12246000
   0.99806000  0.33495000  0.12235000
   0.33675000  0.33238000  0.12261000
   0.55844418  0.21452336  0.43128871
Direct configuration=    12
   0.00086000  0.99993000  0.24271000
   0.16596372  0.16460102  0.30397643
   0.50531127  0.16909665  0.30831556
   0.66822000  0.00107000  0.24272000
   0.82895338  0.17232058  0.30454786
   0.00044000  0.33497000  0.24240000
   0.16585610  0.50309645  0.30319544
   0.33469000  0.33305000  0.24267000
   0.50352457  0.49387784  0.30493688
   0.83068962  0.49858540  0.30236961
   0.16880939  0.83593796  0.30549195
   0.33342000  0.66555000  0.24261000
   0.83822976  0.83068318  0.30232781
   0.00064000  0.00119000  0.00199000
   0.99255825 -0.00011753  0.36070134
   0.16843000  0.16962000  0.06269000
   0.33460000  0.00297000  0.00254000
   0.33818251  0.01202608  0.36559526
   0.50463000  0.16850000  0.06120000
   0.83272000  0.16670000  0.06193000
   0.00004000  0.33467000  0.00213000
   0.00496532  0.33668432  0.36108266
   0.16757000  0.49895000  0.06268000
   0.50099000  0.49896000  0.06206000
   0.83393000  0.50234000  0.06235000
   0.00121000  0.66785000  0.00188000
   0.99171912  0.66018242  0.36080019
   0.16792000  0.83462000  0.06228000
   0.33437000  0.66664000  0.00225000
   0.33235583  0.66158610  0.36103525
   0.50152000  0.83563000  0.06217000
   0.66753000  0.66705000  0.00175000
   0.66968826  0.67243147  0.36091518
   0.83293000  0.83584000  0.06235000
   0.00121000  0.00098000  0.12225000
   0.16700000  0.16811000  0.18239000
   0.33470000  0.00227000  0.12192000
   0.50174000  0.16716000  0.18263000
   0.83421000  0.16639000  0.18283000
   0.16964000  0.49868000  0.18209000
   0.50219000  0.50081000  0.18317000
   0.66741000  0.33395000  0.12233000
   0.83134000  0.50253000  0.18283000
   0.00132000  0.66795000  0.12253000
   0.16898000  0.83509000  0.18243000
   0.33446000  0.66703000  0.12223000
   0.49971000  0.83538000  0.18278000
   0.66698000  0.66840000  0.12259000
   0.83488000  0.83403000  0.18294000
   0.33558000  0.99863000  0.24353000
   0.66801000  0.33262000  0.24229000
   0.00448000  0.66739000  0.24217000
   0.49629466  0.83541812  0.30246782
   0.66521000  0.67351000  0.24327000
   0.66620000  0.99680000  0.00000000
   0.67256037  0.97913458  0.36082399
   0.33213000  0.33386000  0.00135000
   0.31618919  0.33676456  0.36487126
   0.67040000  0.33673000  0.00321000
   0.66728000  0.99998000  0.12246000
   0.99806000  0.33495000  0.12235000
   0.33675000  0.33238000  0.12261000
   0.57224301  0.22671497  0.42960033
Direct configuration=    13
   0.00086000  0.99993000  0.24271000
   0.16620619  0.16553293  0.30454671
   0.50571586  0.16910202  0.30726758
   0.66822000  0.00107000  0.24272000
   0.82878436  0.17287957  0.30468850
   0.00044000  0.33497000  0.24240000
   0.16823296  0.50058184  0.30324784
   0.33469000  0.33305000  0.24267000
   0.50254170  0.49243529  0.30564397
   0.82994952  0.49749959  0.30150562
   0.16950018  0.83717175  0.30558967
   0.33342000  0.66555000  0.24261000
   0.83742330  0.83316204  0.30190998
   0.00064000  0.00119000  0.00199000
   0.99180021 -0.00129416  0.36171593
   0.16843000  0.16962000  0.06269000
   0.33460000  0.00297000  0.00254000
   0.34168907  0.01725744  0.36713394