  63  63   0   0
  0.2715385E+02  0.8532700E-09  0.8497000E-09  0.2359500E-08  0.5000000E-15
  1.000000000000000E-004
  CAR 
 ni3al                                   
      5.56945731    -45.54236794  301      1.01956831      1.00000000
    -45.542  0.0000E+00  0.0000E+00  0.0000E+00  0.0000E+00
    -45.372  0.0000E+00  0.0000E+00  0.0000E+00  0.0000E+00
    -45.202  0.0000E+00  0.0000E+00  0.0000E+00  0.0000E+00
    -45.031  0.0000E+00  0.0000E+00  0.0000E+00  0.0000E+00
    -44.861  0.0000E+00  0.0000E+00  0.0000E+00  0.0000E+00
    -44.691  0.0000E+00  0.0000E+00  0.0000E+00  0.0000E+00
    -44.520  0.0000E+00 -0.1068E-33  0.0000E+00 -0.1820E-34
    -44.350  0.0000E+00 -0.9443E-26  0.0000E+00 -0.1609E-26
    -44.179 -0.5040E-35 -0.6259E-19 -0.8586E-36 -0.1066E-19
    -44.009 -0.6456E-27 -0.3004E-13 -0.1100E-27 -0.5118E-14
    -43.839 -0.6135E-20 -0.1103E-08 -0.1045E-20 -0.1880E-09
    -43.668 -0.4155E-14 -0.3046E-05 -0.7080E-15 -0.5191E-06
    -43.498 -0.2092E-09 -0.6370E-03 -0.3565E-10 -0.1090E-03
    -43.328 -0.7620E-06 -0.6517E-02 -0.1299E-06 -0.1219E-02
    -43.157 -0.2081E-03  0.1009E+00 -0.3558E-04  0.1597E-01
    -42.987 -0.4145E-02  0.2387E+00 -0.7418E-03  0.5665E-01
    -42.816  0.3854E-01  0.2558E-01  0.5824E-02  0.6101E-01
    -42.646  0.2072E+00  0.5232E-01  0.4113E-01  0.6992E-01
    -42.476  0.5844E-01  0.5500E-01  0.5108E-01  0.7929E-01
    -42.305 -0.7535E-02  0.1305E-01  0.4980E-01  0.8152E-01
    -42.135  0.1122E-01  0.1709E-01  0.5171E-01  0.8443E-01
    -41.965  0.6508E-01  0.2663E-01  0.6280E-01  0.8896E-01
    -41.794  0.1295E+00  0.6875E-02  0.8487E-01  0.9014E-01
    -41.624  0.2434E+00 -0.7677E-03  0.1263E+00  0.9000E-01
    -41.453  0.2610E-01 -0.2531E-04  0.1308E+00  0.9000E-01
    -41.283 -0.4461E-02 -0.3882E-07  0.1300E+00  0.9000E-01
    -41.113 -0.9821E-04 -0.2353E-10  0.1300E+00  0.9000E-01
    -40.942 -0.1565E-06 -0.1526E-06  0.1300E+00  0.9000E-01
    -40.772 -0.1038E-08 -0.7562E-04  0.1300E+00  0.8999E-01
    -40.602 -0.2557E-05 -0.1308E-02  0.1300E+00  0.8976E-01
    -40.431 -0.3828E-03  0.1709E-01  0.1299E+00  0.9268E-01
    -40.261  0.4858E-03  0.2308E-01  0.1300E+00  0.9661E-01
    -40.090  0.3107E-01  0.2677E-01  0.1353E+00  0.1012E+00
    -39.920  0.2634E-01  0.5793E-01  0.1398E+00  0.1110E+00
    -39.750  0.1616E-02  0.8052E-01  0.1401E+00  0.1248E+00
    -39.579 -0.4251E-03  0.6988E-01  0.1400E+00  0.1367E+00
    -39.409 -0.5590E-05  0.2128E-01  0.1400E+00  0.1403E+00
    -39.239 -0.4034E-08 -0.1538E-02  0.1400E+00  0.1400E+00
    -39.068 -0.1955E-12 -0.1503E-03  0.1400E+00  0.1400E+00
    -38.898  0.0000E+00 -0.4814E-06  0.1400E+00  0.1400E+00
    -38.727  0.0000E+00 -0.9933E-10  0.1400E+00  0.1400E+00
    -38.557  0.0000E+00 -0.1455E-14  0.1400E+00  0.1400E+00
    -38.387  0.0000E+00  0.0000E+00  0.1400E+00  0.1400E+00
    -38.216  0.0000E+00  0.0000E+00  0.1400E+00  0.1400E+00
    -38.046  0.0000E+00  0.0000E+00  0.1400E+00  0.1400E+00
    -37.876  0.0000E+00  0.0000E+00  0.1400E+00  0.1400E+00
    -37.705  0.0000E+00  0.0000E+00  0.1400E+00  0.1400E+00
    -37.535  0.0000E+00  0.0000E+00  0.1400E+00  0.1400E+00
    -37.364  0.0000E+00  0.0000E+00  0.1400E+00  0.1400E+00
    -37.194  0.0000E+00  0.0000E+00  0.1400E+00  0.1400E+00
    -37.024  0.0000E+00  0.0000E+00  0.1400E+00  0.1400E+00
    -36.853  0.0000E+00  0.0000E+00  0.1400E+00  0.1400E+00
    -36.683  0.0000E+00  0.0000E+00  0.1400E+00  0.1400E+00
    -36.513  0.0000E+00  0.0000E+00  0.1400E+00  0.1400E+00
    -36.342  0.0000E+00  0.0000E+00  0.1400E+00  0.1400E+00
    -36.172  0.0000E+00  0.0000E+00  0.1400E+00  0.1400E+00
    -36.001  0.0000E+00  0.0000E+00  0.1400E+00  0.1400E+00
    -35.831  0.0000E+00  0.0000E+00  0.1400E+00  0.1400E+00
    -35.661  0.0000E+00  0.0000E+00  0.1400E+00  0.1400E+00
    -35.490  0.0000E+00  0.0000E+00  0.1400E+00  0.1400E+00
    -35.320  0.0000E+00  0.0000E+00  0.1400E+00  0.1400E+00
    -35.150  0.0000E+00  0.0000E+00  0.1400E+00  0.1400E+00
    -34.979  0.0000E+00  0.0000E+00  0.1400E+00  0.1400E+00
    -34.809  0.0000E+00  0.0000E+00  0.1400E+00  0.1400E+00
    -34.639  0.0000E+00  0.0000E+00  0.1400E+00  0.1400E+00
    -34.468  0.0000E+00  0.0000E+00  0.1400E+00  0.1400E+00
    -34.298  0.0000E+00  0.0000E+00  0.1400E+00  0.1400E+00
    -34.127  0.0000E+00  0.0000E+00  0.1400E+00  0.1400E+00
    -33.957  0.0000E+00  0.0000E+00  0.1400E+00  0.1400E+00
    -33.787  0.0000E+00  0.0000E+00  0.1400E+00  0.1400E+00
    -33.616  0.0000E+00  0.0000E+00  0.1400E+00  0.1400E+00
    -33.446  0.0000E+00  0.0000E+00  0.1400E+00  0.1400E+00
    -33.276  0.0000E+00  0.0000E+00  0.1400E+00  0.1400E+00
    -33.105  0.0000E+00  0.0000E+00  0.1400E+00  0.1400E+00
    -32.935  0.0000E+00  0.0000E+00  0.1400E+00  0.1400E+00
    -32.764  0.0000E+00  0.0000E+00  0.1400E+00  0.1400E+00
    -32.594  0.0000E+00  0.0000E+00  0.1400E+00  0.1400E+00
    -32.424  0.0000E+00  0.0000E+00  0.1400E+00  0.1400E+00
    -32.253  0.0000E+00  0.0000E+00  0.1400E+00  0.1400E+00
    -32.083  0.0000E+00  0.0000E+00  0.1400E+00  0.1400E+00
    -31.913  0.0000E+00  0.0000E+00  0.1400E+00  0.1400E+00
    -31.742  0.0000E+00  0.0000E+00  0.1400E+00  0.1400E+00
    -31.572  0.0000E+00  0.0000E+00  0.1400E+00  0.1400E+00
    -31.401  0.0000E+00  0.0000E+00  0.1400E+00  0.1400E+00
    -31.231  0.0000E+00  0.0000E+00  0.1400E+00  0.1400E+00
    -31.061  0.0000E+00  0.0000E+00  0.1400E+00  0.1400E+00
    -30.890  0.0000E+00  0.0000E+00  0.1400E+00  0.1400E+00
    -30.720  0.0000E+00  0.0000E+00  0.1400E+00  0.1400E+00
    -30.550  0.0000E+00  0.0000E+00  0.1400E+00  0.1400E+00
    -30.379  0.0000E+00  0.0000E+00  0.1400E+00  0.1400E+00
    -30.209  0.0000E+00  0.0000E+00  0.1400E+00  0.1400E+00
    -30.038  0.0000E+00  0.0000E+00  0.1400E+00  0.1400E+00
    -29.868  0.0000E+00  0.0000E+00  0.1400E+00  0.1400E+00
    -29.698  0.0000E+00  0.0000E+00  0.1400E+00  0.1400E+00
    -29.527  0.0000E+00  0.0000E+00  0.1400E+00  0.1400E+00
    -29.357  0.0000E+00  0.0000E+00  0.1400E+00  0.1400E+00
    -29.187  0.0000E+00  0.0000E+00  0.1400E+00  0.1400E+00
    -29.016  0.0000E+00  0.0000E+00  0.1400E+00  0.1400E+00
    -28.846  0.0000E+00  0.0000E+00  0.1400E+00  0.1400E+00
    -28.675  0.0000E+00  0.0000E+00  0.1400E+00  0.1400E+00
    -28.505  0.0000E+00  0.0000E+00  0.1400E+00  0.1400E+00
    -28.335  0.0000E+00  0.0000E+00  0.1400E+00  0.1400E+00
    -28.164  0.0000E+00  0.0000E+00  0.1400E+00  0.1400E+00
    -27.994  0.0000E+00  0.0000E+00  0.1400E+00  0.1400E+00
    -27.824  0.0000E+00  0.0000E+00  0.1400E+00  0.1400E+00
    -27.653  0.0000E+00  0.0000E+00  0.1400E+00  0.1400E+00
    -27.483  0.0000E+00  0.0000E+00  0.1400E+00  0.1400E+00
    -27.312  0.0000E+00  0.0000E+00  0.1400E+00  0.1400E+00
    -27.142  0.0000E+00  0.0000E+00  0.1400E+00  0.1400E+00
    -26.972  0.0000E+00  0.0000E+00  0.1400E+00  0.1400E+00
    -26.801  0.0000E+00  0.0000E+00  0.1400E+00  0.1400E+00
    -26.631  0.0000E+00  0.0000E+00  0.1400E+00  0.1400E+00
    -26.461  0.0000E+00  0.0000E+00  0.1400E+00  0.1400E+00
    -26.290  0.0000E+00  0.0000E+00  0.1400E+00  0.1400E+00
    -26.120  0.0000E+00  0.0000E+00  0.1400E+00  0.1400E+00
    -25.950  0.0000E+00  0.0000E+00  0.1400E+00  0.1400E+00
    -25.779  0.0000E+00  0.0000E+00  0.1400E+00  0.1400E+00
    -25.609  0.0000E+00  0.0000E+00  0.1400E+00  0.1400E+00
    -25.438  0.0000E+00  0.0000E+00  0.1400E+00  0.1400E+00
    -25.268  0.0000E+00  0.0000E+00  0.1400E+00  0.1400E+00
    -25.098  0.0000E+00  0.0000E+00  0.1400E+00  0.1400E+00
    -24.927  0.0000E+00  0.0000E+00  0.1400E+00  0.1400E+00
    -24.757  0.0000E+00  0.0000E+00  0.1400E+00  0.1400E+00
    -24.587  0.0000E+00  0.0000E+00  0.1400E+00  0.1400E+00
    -24.416  0.0000E+00  0.0000E+00  0.1400E+00  0.1400E+00
    -24.246  0.0000E+00  0.0000E+00  0.1400E+00  0.1400E+00
    -24.075  0.0000E+00  0.0000E+00  0.1400E+00  0.1400E+00
    -23.905  0.0000E+00  0.0000E+00  0.1400E+00  0.1400E+00
    -23.735  0.0000E+00  0.0000E+00  0.1400E+00  0.1400E+00
    -23.564  0.0000E+00  0.0000E+00  0.1400E+00  0.1400E+00
    -23.394  0.0000E+00  0.0000E+00  0.1400E+00  0.1400E+00
    -23.224  0.0000E+00  0.0000E+00  0.1400E+00  0.1400E+00
    -23.053  0.0000E+00  0.0000E+00  0.1400E+00  0.1400E+00
    -22.883  0.0000E+00  0.0000E+00  0.1400E+00  0.1400E+00
    -22.712  0.0000E+00  0.0000E+00  0.1400E+00  0.1400E+00
    -22.542  0.0000E+00  0.0000E+00  0.1400E+00  0.1400E+00
    -22.372  0.0000E+00  0.0000E+00  0.1400E+00  0.1400E+00
    -22.201  0.0000E+00  0.0000E+00  0.1400E+00  0.1400E+00
    -22.031  0.0000E+00  0.0000E+00  0.1400E+00  0.1400E+00
    -21.861  0.0000E+00  0.0000E+00  0.1400E+00  0.1400E+00
    -21.690  0.0000E+00  0.0000E+00  0.1400E+00  0.1400E+00
    -21.520  0.0000E+00  0.0000E+00  0.1400E+00  0.1400E+00
    -21.349  0.0000E+00  0.0000E+00  0.1400E+00  0.1400E+00
    -21.179  0.0000E+00  0.0000E+00  0.1400E+00  0.1400E+00
    -21.009  0.0000E+00  0.0000E+00  0.1400E+00  0.1400E+00
    -20.838  0.0000E+00  0.0000E+00  0.1400E+00  0.1400E+00
    -20.668  0.0000E+00  0.0000E+00  0.1400E+00  0.1400E+00
    -20.498  0.0000E+00  0.0000E+00  0.1400E+00  0.1400E+00
    -20.327  0.0000E+00  0.0000E+00  0.1400E+00  0.1400E+00
    -20.157  0.0000E+00  0.0000E+00  0.1400E+00  0.1400E+00
    -19.986  0.0000E+00  0.0000E+00  0.1400E+00  0.1400E+00
    -19.816  0.0000E+00  0.0000E+00  0.1400E+00  0.1400E+00
    -19.646  0.0000E+00  0.0000E+00  0.1400E+00  0.1400E+00
    -19.475  0.0000E+00  0.0000E+00  0.1400E+00  0.1400E+00
    -19.305  0.0000E+00  0.0000E+00  0.1400E+00  0.1400E+00
    -19.135  0.0000E+00  0.0000E+00  0.1400E+00  0.1400E+00
    -18.964  0.0000E+00  0.0000E+00  0.1400E+00  0.1400E+00
    -18.794  0.0000E+00  0.0000E+00  0.1400E+00  0.1400E+00
    -18.623  0.0000E+00  0.0000E+00  0.1400E+00  0.1400E+00
    -18.453  0.0000E+00  0.0000E+00  0.1400E+00  0.1400E+00
    -18.283  0.0000E+00  0.0000E+00  0.1400E+00  0.1400E+00
    -18.112  0.0000E+00  0.0000E+00  0.1400E+00  0.1400E+00
    -17.942  0.0000E+00  0.0000E+00  0.1400E+00  0.1400E+00
    -17.772  0.0000E+00  0.0000E+00  0.1400E+00  0.1400E+00
    -17.601  0.0000E+00  0.0000E+00  0.1400E+00  0.1400E+00
    -17.431  0.0000E+00  0.0000E+00  0.1400E+00  0.1400E+00
    -17.260  0.0000E+00  0.0000E+00  0.1400E+00  0.1400E+00
    -17.090  0.0000E+00  0.0000E+00  0.1400E+00  0.1400E+00
    -16.920  0.0000E+00  0.0000E+00  0.1400E+00  0.1400E+00
    -16.749 -0.1388E-35 -0.6442E-35  0.1400E+00  0.1400E+00
    -16.579 -0.2341E-27 -0.8636E-27  0.1400E+00  0.1400E+00
    -16.409 -0.2976E-20 -0.8758E-20  0.1400E+00  0.1400E+00
    -16.238 -0.2757E-14 -0.6505E-14  0.1400E+00  0.1400E+00
    -16.068 -0.1934E-09 -0.3693E-09  0.1400E+00  0.1400E+00
    -15.898 -0.9734E-06 -0.1521E-05  0.1400E+00  0.1400E+00
    -15.727 -0.3171E-03 -0.4073E-03  0.1399E+00  0.1399E+00
    -15.557 -0.2758E-02 -0.2266E-02  0.1395E+00  0.1395E+00
    -15.386  0.5189E-01  0.5667E-01  0.1483E+00  0.1492E+00
    -15.216  0.5205E-01  0.4704E-01  0.1572E+00  0.1572E+00
    -15.046 -0.2709E-02 -0.2960E-02  0.1567E+00  0.1567E+00
    -14.875 -0.3230E-03 -0.2527E-03  0.1567E+00  0.1567E+00
    -14.705 -0.1037E-05 -0.6854E-06  0.1567E+00  0.1567E+00
    -14.535 -0.2209E-09 -0.1232E-09  0.1567E+00  0.1567E+00
    -14.364 -0.3451E-14 -0.1612E-14  0.1567E+00  0.1567E+00
    -14.194  0.0000E+00  0.0000E+00  0.1567E+00  0.1567E+00
    -14.023  0.0000E+00  0.0000E+00  0.1567E+00  0.1567E+00
    -13.853  0.0000E+00  0.0000E+00  0.1567E+00  0.1567E+00
    -13.683  0.0000E+00  0.0000E+00  0.1567E+00  0.1567E+00
    -13.512  0.0000E+00  0.0000E+00  0.1567E+00  0.1567E+00
    -13.342  0.0000E+00  0.0000E+00  0.1567E+00  0.1567E+00
    -13.172  0.0000E+00  0.0000E+00  0.1567E+00  0.1567E+00
    -13.001  0.0000E+00  0.0000E+00  0.1567E+00  0.1567E+00
    -12.831  0.0000E+00  0.0000E+00  0.1567E+00  0.1567E+00
    -12.660  0.0000E+00  0.0000E+00  0.1567E+00  0.1567E+00
    -12.490  0.0000E+00  0.0000E+00  0.1567E+00  0.1567E+00
    -12.320  0.0000E+00  0.0000E+00  0.1567E+00  0.1567E+00
    -12.149  0.0000E+00  0.0000E+00  0.1567E+00  0.1567E+00
    -11.979  0.0000E+00  0.0000E+00  0.1567E+00  0.1567E+00
    -11.809  0.0000E+00  0.0000E+00  0.1567E+00  0.1567E+00
    -11.638  0.0000E+00  0.0000E+00  0.1567E+00  0.1567E+00
    -11.468  0.0000E+00  0.0000E+00  0.1567E+00  0.1567E+00
    -11.297  0.0000E+00  0.0000E+00  0.1567E+00  0.1567E+00
    -11.127  0.0000E+00  0.0000E+00  0.1567E+00  0.1567E+00
    -10.957  0.0000E+00  0.0000E+00  0.1567E+00  0.1567E+00
    -10.786  0.0000E+00  0.0000E+00  0.1567E+00  0.1567E+00
    -10.616  0.0000E+00  0.0000E+00  0.1567E+00  0.1567E+00
    -10.446  0.0000E+00  0.0000E+00  0.1567E+00  0.1567E+00
    -10.275  0.0000E+00  0.0000E+00  0.1567E+00  0.1567E+00
    -10.105  0.0000E+00  0.0000E+00  0.1567E+00  0.1567E+00
     -9.934  0.0000E+00  0.0000E+00  0.1567E+00  0.1567E+00
     -9.764  0.0000E+00  0.0000E+00  0.1567E+00  0.1567E+00
     -9.594  0.0000E+00  0.0000E+00  0.1567E+00  0.1567E+00
     -9.423  0.0000E+00  0.0000E+00  0.1567E+00  0.1567E+00
     -9.253  0.0000E+00  0.0000E+00  0.1567E+00  0.1567E+00
     -9.083 -0.2628E-37 -0.4525E-37  0.1567E+00  0.1567E+00
     -8.912 -0.5218E-29 -0.8784E-29  0.1567E+00  0.1567E+00
     -8.742 -0.7385E-22 -0.1221E-21  0.1567E+00  0.1567E+00
     -8.571 -0.7853E-16 -0.1279E-15  0.1567E+00  0.1567E+00
     -8.401 -0.6638E-11 -0.1061E-10  0.1567E+00  0.1567E+00
     -8.231 -0.4402E-07 -0.6762E-07  0.1567E+00  0.1567E+00
     -8.060 -0.2183E-04 -0.3071E-04  0.1567E+00  0.1567E+00
     -7.890 -0.5310E-03 -0.5861E-03  0.1566E+00  0.1566E+00
     -7.720  0.5772E-02  0.7250E-02  0.1576E+00  0.1578E+00
     -7.549  0.1404E-01  0.1312E-01  0.1599E+00  0.1600E+00
     -7.379  0.4816E-03 -0.4899E-04  0.1600E+00  0.1600E+00
     -7.208 -0.2940E-03 -0.1818E-03  0.1600E+00  0.1600E+00
     -7.038  0.1535E-02  0.1078E-03  0.1602E+00  0.1600E+00
     -6.868  0.6155E-02  0.3438E-02  0.1613E+00  0.1606E+00
     -6.697  0.3849E-02  0.6149E-02  0.1619E+00  0.1616E+00
     -6.527  0.5794E-02  0.2837E-02  0.1629E+00  0.1621E+00
     -6.357  0.7863E-02  0.7852E-02  0.1643E+00  0.1635E+00
     -6.186  0.1033E-02  0.5338E-02  0.1644E+00  0.1644E+00
     -6.016  0.8197E-02  0.1220E-02  0.1658E+00  0.1646E+00
     -5.846  0.1348E-01  0.8273E-02  0.1681E+00  0.1660E+00
     -5.675  0.1096E-01  0.1457E-01  0.1700E+00  0.1685E+00
     -5.505  0.1144E-01  0.8598E-02  0.1720E+00  0.1699E+00
     -5.334  0.8823E-02  0.1271E-01  0.1735E+00  0.1721E+00
     -5.164  0.9642E-02  0.7805E-02  0.1751E+00  0.1734E+00
     -4.994  0.2063E-01  0.7833E-02  0.1786E+00  0.1748E+00
     -4.823  0.1364E-01  0.1901E-01  0.1809E+00  0.1780E+00
     -4.653  0.1803E-01  0.1377E-01  0.1840E+00  0.1804E+00
     -4.483  0.1975E-01  0.1236E-01  0.1874E+00  0.1825E+00
     -4.312  0.2549E-01  0.1381E-01  0.1917E+00  0.1848E+00
     -4.142  0.2966E-01  0.1671E-01  0.1968E+00  0.1877E+00
     -3.971  0.4758E-01  0.2944E-01  0.2049E+00  0.1927E+00
     -3.801  0.6532E-01  0.2192E-01  0.2160E+00  0.1964E+00
     -3.631  0.9883E-01  0.2585E-01  0.2328E+00  0.2008E+00
     -3.460  0.1221E+00  0.2040E-01  0.2536E+00  0.2043E+00
     -3.290  0.1266E+00  0.3546E-01  0.2752E+00  0.2103E+00
     -3.120  0.1817E+00  0.4734E-01  0.3062E+00  0.2184E+00
     -2.949  0.1697E+00  0.6208E-01  0.3351E+00  0.2290E+00
     -2.779  0.1297E+00  0.6992E-01  0.3572E+00  0.2409E+00
     -2.608  0.1603E+00  0.6910E-01  0.3845E+00  0.2527E+00
     -2.438  0.2411E+00  0.7066E-01  0.4256E+00  0.2647E+00
     -2.268  0.2536E+00  0.8750E-01  0.4688E+00  0.2796E+00
     -2.097  0.2216E+00  0.9199E-01  0.5065E+00  0.2953E+00
     -1.927  0.2275E+00  0.1053E+00  0.5453E+00  0.3132E+00
     -1.757  0.2304E+00  0.1145E+00  0.5845E+00  0.3327E+00
     -1.586  0.2268E+00  0.1157E+00  0.6232E+00  0.3524E+00
     -1.416  0.2263E+00  0.1295E+00  0.6617E+00  0.3745E+00
     -1.245  0.2067E+00  0.1541E+00  0.6969E+00  0.4007E+00
     -1.075  0.1614E+00  0.1644E+00  0.7244E+00  0.4287E+00
     -0.905  0.1672E+00  0.1633E+00  0.7529E+00  0.4566E+00
     -0.734  0.1777E+00  0.1733E+00  0.7832E+00  0.4861E+00
     -0.564  0.2017E+00  0.2018E+00  0.8176E+00  0.5205E+00
     -0.394  0.2603E+00  0.2130E+00  0.8619E+00  0.5568E+00
     -0.223  0.3079E+00  0.2192E+00  0.9144E+00  0.5941E+00
     -0.053  0.2817E+00  0.2107E+00  0.9624E+00  0.6300E+00
      0.118  0.2203E+00  0.1785E+00  0.9999E+00  0.6604E+00
      0.288  0.1749E+00  0.1304E+00  0.1030E+01  0.6826E+00
      0.458  0.1594E+00  0.1051E+00  0.1057E+01  0.7005E+00
      0.629  0.1530E+00  0.8430E-01  0.1083E+01  0.7149E+00
      0.799  0.1439E+00  0.8979E-01  0.1107E+01  0.7302E+00
      0.969  0.1100E+00  0.1141E+00  0.1126E+01  0.7496E+00
      1.140  0.9582E-01  0.1284E+00  0.1143E+01  0.7715E+00
      1.310  0.1109E+00  0.1639E+00  0.1161E+01  0.7994E+00
      1.481  0.1262E+00  0.1839E+00  0.1183E+01  0.8308E+00
      1.651  0.1251E+00  0.2066E+00  0.1204E+01  0.8660E+00
      1.821  0.1202E+00  0.2329E+00  0.1225E+01  0.9056E+00
      1.992  0.7014E-01  0.2349E+00  0.1237E+01  0.9457E+00
      2.162  0.1079E-02  0.2569E+00  0.1237E+01  0.9894E+00
      2.332 -0.9094E-03  0.2860E+00  0.1237E+01  0.1038E+01
      2.503 -0.9590E-05  0.3129E+00  0.1237E+01  0.1091E+01
      2.673 -0.7306E-08  0.3152E+00  0.1237E+01  0.1145E+01
      2.843 -0.4492E-12  0.2258E+00  0.1237E+01  0.1184E+01
      3.014 -0.1629E-17  0.1528E+00  0.1237E+01  0.1210E+01
      3.184  0.0000E+00  0.1163E+00  0.1237E+01  0.1229E+01
      3.355  0.0000E+00  0.4492E-01  0.1237E+01  0.1237E+01
      3.525  0.0000E+00 -0.2428E-02  0.1237E+01  0.1237E+01
      3.695  0.0000E+00 -0.3595E-03  0.1237E+01  0.1237E+01
      3.866  0.0000E+00 -0.1640E-05  0.1237E+01  0.1237E+01
      4.036  0.0000E+00 -0.5137E-09  0.1237E+01  0.1237E+01
      4.206  0.0000E+00 -0.1191E-13  0.1237E+01  0.1237E+01
      4.377  0.0000E+00  0.0000E+00  0.1237E+01  0.1237E+01
      4.547  0.0000E+00  0.0000E+00  0.1237E+01  0.1237E+01
      4.718  0.0000E+00  0.0000E+00  0.1237E+01  0.1237E+01
      4.888  0.0000E+00  0.0000E+00  0.1237E+01  0.1237E+01
      5.058  0.0000E+00  0.0000E+00  0.1237E+01  0.1237E+01
      5.229  0.0000E+00  0.0000E+00  0.1237E+01  0.1237E+01
      5.399  0.0000E+00  0.0000E+00  0.1237E+01  0.1237E+01
      5.569  0.0000E+00  0.0000E+00  0.1237E+01  0.1237E+01
