   63   63  300    2
  0.2715385E+02  0.8532700E-09  0.8497000E-09  0.2359500E-08  0.5000000E-15
  1.000000000000000E-004
  CAR 
 ni3al                                   
    566     10    371
 
  0.0000000E+00  0.0000000E+00  0.0000000E+00  0.6250000E-01
      1        -42.852452      -43.219089   1.000000   1.000000
      2        -42.774242      -43.193071   1.000000   1.000000
      3        -42.765265      -43.157043   1.000000   1.000000
      4        -42.759169      -43.148382   1.000000   1.000000
      5        -42.747964      -43.142336   1.000000   1.000000
      6        -42.736758      -43.119330   1.000000   1.000000
      7        -42.728806      -43.118727   1.000000   1.000000
      8        -42.723728      -43.111152   1.000000   1.000000
      9        -42.701476      -43.106076   1.000000   1.000000
     10        -42.693450      -43.094977   1.000000   1.000000
     11        -42.688056      -43.088815   1.000000   1.000000
     12        -42.676565      -43.087694   1.000000   1.000000
     13        -42.666113      -43.087078   1.000000   1.000000
     14        -42.661898      -43.074231   1.000000   1.000000
     15        -42.653812      -43.059944   1.000000   1.000000
     16        -42.139970      -43.058571   1.000000   1.000000
     17        -42.053885      -43.033662   1.000000   1.000000
     18        -41.995789      -43.019558   1.000000   1.000000
     19        -41.988399      -42.740410   1.000000   1.000000
     20        -41.975945      -42.700965   1.000000   1.000000
     21        -41.958772      -42.689930   1.000000   1.000000
     22        -41.814177      -42.618141   1.000000   1.000000
     23        -41.792385      -42.578677   1.000000   1.000000
     24        -41.784249      -42.527933   1.000000   1.000000
     25        -41.776259      -42.295438   1.000000   1.000000
     26        -41.768483      -42.100632   1.000000   1.000000
     27        -41.764555      -41.995887   1.000000   1.000000
     28        -41.756518      -40.417709   1.000000   1.000000
     29        -41.749129      -40.411583   1.000000   1.000000
     30        -41.747349      -40.132791   1.000000   1.000000
     31        -41.745108      -40.094165   1.000000   1.000000
     32        -41.730384      -40.021799   1.000000   1.000000
     33        -41.724484      -39.978140   1.000000   1.000000
     34        -41.720181      -39.886453   1.000000   1.000000
     35        -41.710847      -39.874796   1.000000   1.000000
     36        -41.696652      -39.813029   1.000000   1.000000
     37        -41.688389      -39.770810   1.000000   1.000000
     38        -41.667244      -39.759889   1.000000   1.000000
     39        -41.631214      -39.704347   1.000000   1.000000
     40        -40.151379      -39.688029   1.000000   1.000000
     41        -40.128081      -39.584535   1.000000   1.000000
     42        -39.998212      -39.559853   1.000000   1.000000
     43        -15.409251      -15.423347   1.000000   1.000000
     44        -15.395003      -15.403179   1.000000   1.000000
     45        -15.389916      -15.398512   1.000000   1.000000
     46        -15.379298      -15.385046   1.000000   1.000000
     47        -15.357330      -15.369256   1.000000   1.000000
     48         -7.734639       -7.738466   1.000000   1.000000
     49         -7.082835       -6.985154   1.000000   1.000000
     50         -6.063289       -5.886708   1.000000   1.000000
     51         -5.218294       -5.030442   1.000000   1.000000
     52         -5.176327       -5.006457   1.000000   1.000000
     53         -5.151356       -4.993668   1.000000   1.000000
     54         -5.129808       -4.958864   1.000000   1.000000
     55         -4.822262       -4.503807   1.000000   1.000000
     56         -4.578161       -4.257760   1.000000   1.000000
     57         -4.540245       -4.232401   1.000000   1.000000
     58         -4.514005       -4.182048   1.000000   1.000000
     59         -4.442754       -4.050889   1.000000   1.000000
     60         -4.079077       -3.642047   1.000000   1.000000
     61         -4.065826       -3.631554   1.000000   1.000000
     62         -4.050422       -3.582087   1.000000   1.000000
     63         -4.037821       -3.533253   1.000000   1.000000
     64         -4.003597       -3.460705   1.000000   1.000000
     65         -3.995000       -3.404022   1.000000   1.000000
     66         -3.975471       -3.350294   1.000000   1.000000
     67         -3.925251       -3.291580   1.000000   1.000000
     68         -3.809083       -3.097162   1.000000   1.000000
     69         -3.787462       -2.855512   1.000000   1.000000
     70         -3.671167       -2.847569   1.000000   1.000000
     71         -3.597483       -2.786979   1.000000   1.000000
     72         -3.554446       -2.765363   1.000000   1.000000
     73         -3.543501       -2.722940   1.000000   1.000000
     74         -3.518115       -2.687668   1.000000   1.000000
     75         -3.430734       -2.620598   1.000000   1.000000
     76         -3.389672       -2.594606   1.000000   1.000000
     77         -3.379249       -2.580087   1.000000   1.000000
     78         -3.365687       -2.493438   1.000000   1.000000
     79         -3.342232       -2.380017   1.000000   1.000000
     80         -3.334061       -2.331837   1.000000   1.000000
     81         -3.315902       -2.312516   1.000000   1.000000
     82         -3.280439       -2.266722   1.000000   1.000000
     83         -3.261310       -2.249924   1.000000   1.000000
     84         -3.246856       -2.212267   1.000000   1.000000
     85         -3.233472       -2.201424   1.000000   1.000000
     86         -3.222209       -2.162183   1.000000   1.000000
     87         -3.215899       -2.098605   1.000000   1.000000
     88         -3.199142       -2.071863   1.000000   1.000000
     89         -3.190239       -2.064042   1.000000   1.000000
     90         -3.169616       -2.055035   1.000000   1.000000
     91         -3.156072       -2.003417   1.000000   1.000000
     92         -3.147606       -1.988043   1.000000   1.000000
     93         -3.095638       -1.967150   1.000000   1.000000
     94         -3.086298       -1.920158   1.000000   1.000000
     95         -3.048072       -1.899413   1.000000   1.000000
     96         -2.951692       -1.861858   1.000000   1.000000
     97         -2.922572       -1.800390   1.000000   1.000000
     98         -2.905900       -1.755703   1.000000   1.000000
     99         -2.898989       -1.743380   1.000000   1.000000
    100         -2.875091       -1.710366   1.000000   1.000000
    101         -2.864379       -1.702896   1.000000   1.000000
    102         -2.852611       -1.680409   1.000000   1.000000
    103         -2.827730       -1.638649   1.000000   1.000000
    104         -2.824904       -1.603608   1.000000   1.000000
    105         -2.809451       -1.574201   1.000000   1.000000
    106         -2.784603       -1.554388   1.000000   1.000000
    107         -2.779951       -1.502608   1.000000   1.000000
    108         -2.762062       -1.493633   1.000000   1.000000
    109         -2.732466       -1.490573   1.000000   1.000000
    110         -2.666064       -1.451482   1.000000   1.000000
    111         -2.624736       -1.446719   1.000000   1.000000
    112         -2.604921       -1.425425   1.000000   1.000000
    113         -2.566462       -1.398635   1.000000   1.000000
    114         -2.547696       -1.375898   1.000000   1.000000
    115         -2.531561       -1.369800   1.000000   1.000000
    116         -2.523070       -1.320663   1.000000   1.000000
    117         -2.504511       -1.314463   1.000000   1.000000
    118         -2.492428       -1.294700   1.000000   1.000000
    119         -2.487764       -1.278420   1.000000   1.000000
    120         -2.471979       -1.227070   1.000000   1.000000
    121         -2.458680       -1.213661   1.000000   1.000000
    122         -2.448062       -1.210498   1.000000   1.000000
    123         -2.438386       -1.197888   1.000000   1.000000
    124         -2.429895       -1.177216   1.000000   1.000000
    125         -2.424470       -1.156898   1.000000   1.000000
    126         -2.413706       -1.121455   1.000000   1.000000
    127         -2.401102       -1.097976   1.000000   1.000000
    128         -2.397088       -1.081055   1.000000   1.000000
    129         -2.384871       -1.062627   1.000000   1.000000
    130         -2.370067       -1.044100   1.000000   1.000000
    131         -2.365721       -1.032073   1.000000   1.000000
    132         -2.352262       -1.026573   1.000000   1.000000
    133         -2.336708       -0.994291   1.000000   1.000000
    134         -2.331888       -0.978272   1.000000   1.000000
    135         -2.314965       -0.969248   1.000000   1.000000
    136         -2.303854       -0.937979   1.000000   1.000000
    137         -2.294923       -0.924800   1.000000   1.000000
    138         -2.278757       -0.904743   1.000000   1.000000
    139         -2.269637       -0.898467   1.000000   1.000000
    140         -2.255921       -0.881414   1.000000   1.000000
    141         -2.254357       -0.858261   1.000000   1.000000
    142         -2.229430       -0.853686   1.000000   1.000000
    143         -2.227721       -0.833536   1.000000   1.000000
    144         -2.219399       -0.829673   1.000000   1.000000
    145         -2.217282       -0.814797   1.000000   1.000000
    146         -2.198327       -0.800440   1.000000   1.000000
    147         -2.180737       -0.774813   1.000000   1.000000
    148         -2.175447       -0.757080   1.000000   1.000000
    149         -2.159577       -0.748801   1.000000   1.000000
    150         -2.138196       -0.725229   1.000000   1.000000
    151         -2.129677       -0.710265   1.000000   1.000000
    152         -2.124221       -0.689259   1.000000   1.000000
    153         -2.103046       -0.680858   1.000000   1.000000
    154         -2.101011       -0.664893   1.000000   1.000000
    155         -2.078431       -0.648066   1.000000   1.000000
    156         -2.048259       -0.632161   1.000000   1.000000
    157         -2.045793       -0.614000   1.000000   1.000000
    158         -2.027984       -0.586187   1.000000   1.000000
    159         -2.025574       -0.575669   1.000000   1.000000
    160         -2.014314       -0.538307   1.000000   1.000000
    161         -1.998866       -0.533719   1.000000   1.000000
    162         -1.982374       -0.525043   1.000000   1.000000
    163         -1.969655       -0.505060   1.000000   1.000000
    164         -1.944240       -0.480992   1.000000   1.000000
    165         -1.937923       -0.466309   1.000000   1.000000
    166         -1.934286       -0.438391   1.000000   1.000000
    167         -1.918957       -0.433393   1.000000   1.000000
    168         -1.900618       -0.408824   1.000000   1.000000
    169         -1.887049       -0.400088   1.000000   1.000000
    170         -1.859610       -0.386839   1.000000   1.000000
    171         -1.851257       -0.350322   1.000000   1.000000
    172         -1.836487       -0.339805   1.000000   1.000000
    173         -1.829581       -0.315249   1.000000   1.000000
    174         -1.817153       -0.292857   1.000000   1.000000
    175         -1.805255       -0.279215   1.000000   1.000000
    176         -1.789543       -0.253912   1.000000   1.000000
    177         -1.784060       -0.232918   1.000000   1.000000
    178         -1.772628       -0.220437   1.000000   1.000000
    179         -1.741707       -0.206220   1.000000   1.000000
    180         -1.726501       -0.197472   1.000000   1.000000
    181         -1.705802       -0.174534   1.000000   1.000000
    182         -1.700539       -0.165298   1.000000   1.000000
    183         -1.680329       -0.155547   1.000000   1.000000
    184         -1.671424       -0.133527   1.000000   1.000000
    185         -1.659311       -0.129315   1.000000   1.000000
    186         -1.643319       -0.116032   1.000000   1.000000
    187         -1.637334       -0.092317   1.000000   1.000000
    188         -1.615046       -0.087649   1.000000   1.000000
    189         -1.602260       -0.039159   1.000000   1.000000
    190         -1.574000       -0.027440   1.000000   1.000000
    191         -1.550975       -0.005157   1.000000   1.000000
    192         -1.535170        0.038418   1.000000   1.000000
    193         -1.509939        0.041834   1.000000   1.000000
    194         -1.484967        0.055815   1.000000   1.000000
    195         -1.478450        0.075454   1.000000   1.000000
    196         -1.456954        0.091744   1.000000   1.000000
    197         -1.435660        0.109806   1.000000   1.000000
    198         -1.401337        0.168979   1.000000   1.000000
    199         -1.396416        0.202890   1.000000   1.000000
    200         -1.383599        0.227720   1.000000   1.000000
    201         -1.370917        0.259478   1.000000   1.000000
    202         -1.345982        0.298333   1.000000   1.000000
    203         -1.323191        0.325522   1.000000   1.000000
    204         -1.307842        0.326553   1.000000   1.000000
    205         -1.295307        0.354480   1.000000   1.000000
    206         -1.273221        0.370817   1.000000   1.000000
    207         -1.261316        0.391673   1.000000   1.000000
    208         -1.255051        0.409881   1.000000   1.000000
    209         -1.233136        0.422531   1.000000   1.000000
    210         -1.224235        0.458611   1.000000   1.000001
    211         -1.191980        0.507420   1.000000   1.000008
    212         -1.167982        0.529782   1.000000   1.000020
    213         -1.141131        0.551623   1.000000   1.000047
    214         -1.137857        0.590683   1.000000   1.000201
    215         -1.098611        0.605312   1.000000   1.000333
    216         -1.091503        0.626099   1.000000   1.000656
    217         -1.073405        0.666385   1.000000   1.002163
    218         -1.066796        0.686118   1.000000   1.003645
    219         -1.050643        0.703947   1.000000   1.005629
    220         -1.037448        0.742408   1.000000   1.012665
    221         -1.015194        0.756786   1.000000   1.016347
    222         -1.003461        0.796039   1.000000   1.028086
    223         -0.983552        0.807670   1.000000   1.031300
    224         -0.962420        0.828576   1.000000   1.035118
    225         -0.953260        0.897150   1.000000   0.994057
    226         -0.920705        0.922732   1.000000   0.939419
    227         -0.899227        0.935693   1.000000   0.900849
    228         -0.880026        0.951711   1.000000   0.842833
    229         -0.874684        1.003677   1.000000   0.589099
    230         -0.860591        1.030496   1.000000   0.438528
    231         -0.840966        1.115308   1.000000   0.063553
    232         -0.830329        1.171941   1.000000  -0.026692
    233         -0.808253        1.187353   1.000000  -0.033459
    234         -0.797342        1.192818   1.000000  -0.034635
    235         -0.763053        1.216778   1.000000  -0.034357
    236         -0.747493        1.235253   1.000000  -0.030308
    237         -0.743143        1.240344   1.000000  -0.028887
    238         -0.717143        1.260481   1.000000  -0.022785
    239         -0.707881        1.265477   1.000000  -0.021255
    240         -0.669530        1.286231   1.000000  -0.015301
    241         -0.661215        1.300832   1.000000  -0.011717
    242         -0.644004        1.307208   1.000000  -0.010338
    243         -0.633402        1.326090   1.000000  -0.006929
    244         -0.601130        1.332311   1.000000  -0.006018
    245         -0.588790        1.344007   1.000000  -0.004561
    246         -0.585354        1.366678   1.000000  -0.002552
    247         -0.571025        1.381742   1.000000  -0.001682
    248         -0.561976        1.399460   1.000000  -0.001000
    249         -0.543504        1.424437   1.000000  -0.000454
    250         -0.532596        1.435668   1.000000  -0.000312
    251         -0.498380        1.451750   1.000000  -0.000179
    252         -0.492368        1.467152   1.000000  -0.000102
    253         -0.468674        1.472917   1.000000  -0.000082
    254         -0.449753        1.491480   1.000000  -0.000040
    255         -0.448479        1.508812   1.000000  -0.000020
    256         -0.436338        1.535237   1.000000  -0.000007
    257         -0.432235        1.552536   1.000000  -0.000003
    258         -0.421572        1.561163   1.000000  -0.000002
    259         -0.408447        1.592528   1.000000  -0.000000
    260         -0.397562        1.594947   1.000000  -0.000000
    261         -0.394904        1.626341   1.000000  -0.000000
    262         -0.383554        1.627177   1.000000  -0.000000
    263         -0.379008        1.641424   1.000000  -0.000000
    264         -0.360482        1.668395   1.000000  -0.000000
    265         -0.347174        1.686479   1.000000  -0.000000
    266         -0.344430        1.694015   1.000000  -0.000000
    267         -0.322976        1.702886   1.000000  -0.000000
    268         -0.318795        1.722656   1.000000  -0.000000
    269         -0.305938        1.751956   1.000000  -0.000000
    270         -0.294614        1.762200   1.000000  -0.000000
    271         -0.284945        1.774511   1.000000  -0.000000
    272         -0.279924        1.783141   1.000000  -0.000000
    273         -0.273748        1.804181   1.000000  -0.000000
    274         -0.271877        1.817620   1.000000  -0.000000
    275         -0.247152        1.833356   1.000000  -0.000000
    276         -0.236925        1.837860   1.000000  -0.000000
    277         -0.229300        1.856162   1.000000  -0.000000
    278         -0.223756        1.879004   1.000000  -0.000000
    279         -0.210872        1.896795   1.000000  -0.000000
    280         -0.205229        1.909262   1.000000  -0.000000
    281         -0.194902        1.930729   1.000000  -0.000000
    282         -0.191872        1.937596   1.000000  -0.000000
    283         -0.170410        1.959776   1.000000  -0.000000
    284         -0.163130        1.984493   1.000000  -0.000000
    285         -0.151069        1.996844   1.000000  -0.000000
    286         -0.133579        2.004335   1.000000  -0.000000
    287         -0.126036        2.015182   1.000000  -0.000000
    288         -0.114800        2.029383   1.000000  -0.000000
    289         -0.099105        2.057880   1.000000  -0.000000
    290         -0.081946        2.071712   1.000000  -0.000000
    291         -0.071276        2.076771   1.000000  -0.000000
    292         -0.063433        2.096297   1.000000  -0.000000
    293         -0.054735        2.108077   1.000000  -0.000000
    294         -0.037152        2.118584   1.000000  -0.000000
    295         -0.021246        2.126875   1.000000  -0.000000
    296         -0.007761        2.142698   1.000000  -0.000000
    297          0.013263        2.154360   1.000000  -0.000000
    298          0.017664        2.157482   1.000000  -0.000000
    299          0.021276        2.188792   1.000000  -0.000000
    300          0.057823        2.189297   1.000000  -0.000000
    301          0.076661        2.213581   1.000000  -0.000000
    302          0.110875        2.219968   1.000000  -0.000000
    303          0.137751        2.238238   1.000000  -0.000000
    304          0.149699        2.241281   1.000000  -0.000000
    305          0.158068        2.261619   1.000000  -0.000000
    306          0.175442        2.274325   1.000000  -0.000000
    307          0.205353        2.293777   1.000000  -0.000000
    308          0.218570        2.302515   1.000000  -0.000000
    309          0.220780        2.306930   1.000000  -0.000000
    310          0.253083        2.311182   1.000000  -0.000000
    311          0.285738        2.317673   1.000000  -0.000000
    312          0.291881        2.331575   1.000000  -0.000000
    313          0.324730        2.338555   1.000000  -0.000000
    314          0.339813        2.353950   1.000000  -0.000000
    315          0.349236        2.358790   1.000000  -0.000000
    316          0.397395        2.362264   1.000000  -0.000000
    317          0.401268        2.365343   1.000000  -0.000000
    318          0.422190        2.374978   1.000000  -0.000000
    319          0.441231        2.391880   1.000000  -0.000000
    320          0.460700        2.398603   1.000001  -0.000000
    321          0.501418        2.417257   1.000006  -0.000000
    322          0.544163        2.419729   1.000035  -0.000000
    323          0.553008        2.441030   1.000050  -0.000000
    324          0.580902        2.443290   1.000142  -0.000000
    325          0.583395        2.446834   1.000155  -0.000000
    326          0.609665        2.454651   1.000385  -0.000000
    327          0.637732        2.476153   1.000942  -0.000000
    328          0.649233        2.489931   1.001329  -0.000000
    329          0.665218        2.491706   1.002095  -0.000000
    330          0.713442        2.506285   1.006991  -0.000000
    331          0.718895        2.511680   1.007879  -0.000000
    332          0.728833        2.522685   1.009710  -0.000000
    333          0.745113        2.535476   1.013316  -0.000000
    334          0.764959        2.551280   1.018661  -0.000000
    335          0.774056        2.568394   1.021376  -0.000000
    336          0.813682        2.571942   1.032726  -0.000000
    337          0.848734        2.593981   1.034185  -0.000000
    338          0.869840        2.596986   1.024938  -0.000000
    339          0.952513        2.604248   0.839636  -0.000000
    340          0.982501        2.627125   0.702214  -0.000000
    341          0.991349        2.637937   0.656124  -0.000000
    342          1.071686        2.653124   0.224715  -0.000000
    343          1.097567        2.669618   0.119120  -0.000000
    344          1.141374        2.678307   0.006936  -0.000000
    345          1.192599        2.691943  -0.034599  -0.000000
    346          1.232420        2.699281  -0.031057  -0.000000
    347          1.248440        2.710507  -0.026487  -0.000000
    348          1.274180        2.727551  -0.018661  -0.000000
    349          1.309648        2.741529  -0.009841  -0.000000
    350          1.318602        2.750386  -0.008162  -0.000000
    351          1.393061        2.775230  -0.001211  -0.000000
    352          1.415503        2.804286  -0.000607  -0.000000
    353          1.426957        2.826982  -0.000418  -0.000000
    354          1.465522        2.832487  -0.000109  -0.000000
    355          1.477201        2.864667  -0.000070  -0.000000
    356          1.506192        2.889580  -0.000022  -0.000000
    357          1.514889        2.930341  -0.000016  -0.000000
    358          1.539054        2.954848  -0.000006  -0.000000
    359          1.574731        2.962099  -0.000001  -0.000000
    360          1.587746        2.975959  -0.000001  -0.000000
    361          1.598090        2.988561  -0.000000  -0.000000
    362          1.638868        3.022327  -0.000000  -0.000000
    363          1.666239        3.059738  -0.000000  -0.000000
    364          1.680957        3.080220  -0.000000  -0.000000
    365          1.705613        3.095989  -0.000000  -0.000000
    366          1.757954        3.105398  -0.000000  -0.000000
    367          1.789306        3.132723  -0.000000  -0.000000
    368          1.814956        3.160408  -0.000000  -0.000000
    369          1.853724        3.194948  -0.000000  -0.000000
    370          1.872737        3.217311  -0.000000  -0.000000
    371          1.885344        3.239468  -0.000000  -0.000000
 
  0.2500000E+00  0.6721729E-20  0.0000000E+00  0.1250000E+00
      1        -42.852454      -43.219094   1.000000   1.000000
      2        -42.774242      -43.193069   1.000000   1.000000
      3        -42.765257      -43.157046   1.000000   1.000000
      4        -42.759175      -43.148386   1.000000   1.000000
      5        -42.747966      -43.142342   1.000000   1.000000
      6        -42.736763      -43.119324   1.000000   1.000000
      7        -42.728804      -43.118729   1.000000   1.000000
      8        -42.723735      -43.111152   1.000000   1.000000
      9        -42.701477      -43.106064   1.000000   1.000000
     10        -42.693449      -43.095007   1.000000   1.000000
     11        -42.688063      -43.088819   1.000000   1.000000
     12        -42.676573      -43.087674   1.000000   1.000000
     13        -42.666139      -43.087081   1.000000   1.000000
     14        -42.661909      -43.074240   1.000000   1.000000
     15        -42.653811      -43.059944   1.000000   1.000000
     16        -42.139976      -43.058579   1.000000   1.000000
     17        -42.053892      -43.033661   1.000000   1.000000
     18        -41.995777      -43.019591   1.000000   1.000000
     19        -41.988401      -42.740416   1.000000   1.000000
     20        -41.975948      -42.700973   1.000000   1.000000
     21        -41.958776      -42.689936   1.000000   1.000000
     22        -41.814175      -42.618145   1.000000   1.000000
     23        -41.792368      -42.578688   1.000000   1.000000
     24        -41.784256      -42.527931   1.000000   1.000000
     25        -41.776263      -42.295435   1.000000   1.000000
     26        -41.768517      -42.100641   1.000000   1.000000
     27        -41.764536      -41.995890   1.000000   1.000000
     28        -41.756530      -40.417707   1.000000   1.000000
     29        -41.749128      -40.411586   1.000000   1.000000
     30        -41.747361      -40.132793   1.000000   1.000000
     31        -41.745103      -40.094170   1.000000   1.000000
     32        -41.730387      -40.021804   1.000000   1.000000
     33        -41.724490      -39.978157   1.000000   1.000000
     34        -41.720188      -39.886449   1.000000   1.000000
     35        -41.710858      -39.874795   1.000000   1.000000
     36        -41.696670      -39.813036   1.000000   1.000000
     37        -41.688400      -39.770808   1.000000   1.000000
     38        -41.667254      -39.759899   1.000000   1.000000
     39        -41.631213      -39.704359   1.000000   1.000000
     40        -40.151377      -39.688035   1.000000   1.000000
     41        -40.128095      -39.584540   1.000000   1.000000
     42        -39.998218      -39.559861   1.000000   1.000000
     43        -15.409220      -15.423326   1.000000   1.000000
     44        -15.395000      -15.403191   1.000000   1.000000
     45        -15.389936      -15.398512   1.000000   1.000000
     46        -15.379286      -15.385037   1.000000   1.000000
     47        -15.357333      -15.369257   1.000000   1.000000
     48         -7.700562       -7.712805   1.000000   1.000000
     49         -6.966651       -6.864365   1.000000   1.000000
     50         -6.033250       -5.879412   1.000000   1.000000
     51         -5.902361       -5.743594   1.000000   1.000000
     52         -5.156717       -4.931063   1.000000   1.000000
     53         -5.072799       -4.884314   1.000000   1.000000
     54         -5.007584       -4.823178   1.000000   1.000000
     55         -4.717393       -4.409946   1.000000   1.000000
     56         -4.463098       -4.125860   1.000000   1.000000
     57         -4.426273       -4.114993   1.000000   1.000000
     58         -4.385054       -4.078041   1.000000   1.000000
     59         -4.330640       -4.050624   1.000000   1.000000
     60         -4.304316       -4.002528   1.000000   1.000000
     61         -4.154168       -3.707601   1.000000   1.000000
     62         -4.061290       -3.518679   1.000000   1.000000
     63         -3.964185       -3.332631   1.000000   1.000000
     64         -3.904995       -3.292420   1.000000   1.000000
     65         -3.893772       -3.260197   1.000000   1.000000
     66         -3.819493       -3.230222   1.000000   1.000000
     67         -3.783175       -3.185590   1.000000   1.000000
     68         -3.751176       -3.148074   1.000000   1.000000
     69         -3.725853       -3.120644   1.000000   1.000000
     70         -3.701820       -2.970508   1.000000   1.000000
     71         -3.665497       -2.833353   1.000000   1.000000
     72         -3.602810       -2.754591   1.000000   1.000000
     73         -3.549272       -2.735433   1.000000   1.000000
     74         -3.498929       -2.692128   1.000000   1.000000
     75         -3.480670       -2.580736   1.000000   1.000000
     76         -3.460269       -2.552268   1.000000   1.000000
     77         -3.452732       -2.533776   1.000000   1.000000
     78         -3.426398       -2.509657   1.000000   1.000000
     79         -3.412009       -2.467974   1.000000   1.000000
     80         -3.397977       -2.408851   1.000000   1.000000
     81         -3.361868       -2.398701   1.000000   1.000000
     82         -3.311515       -2.361511   1.000000   1.000000
     83         -3.265824       -2.269261   1.000000   1.000000
     84         -3.239831       -2.246862   1.000000   1.000000
     85         -3.198859       -2.219918   1.000000   1.000000
     86         -3.190807       -2.145685   1.000000   1.000000
     87         -3.180628       -2.119831   1.000000   1.000000
     88         -3.161796       -2.063483   1.000000   1.000000
     89         -3.149922       -2.051315   1.000000   1.000000
     90         -3.142829       -1.995582   1.000000   1.000000
     91         -3.130780       -1.973837   1.000000   1.000000
     92         -3.114381       -1.967445   1.000000   1.000000