srun: ROUTE: split_hostlist: hl=j13r1n19 tree_width 0
 running on    4 total cores
 distrk:  each k-point on    1 cores,    4 groups
 distr:  one band on    1 cores,    1 groups
 HIP runtime initialized ...    4 DCUs will be used
 Created    4 streams on each DCU
 vasp.6.3.2 27Jun22 (build Mar 15 2023 15:45:48) complex                        
  
 POSCAR found type information on POSCAR FeCrPb
 POSCAR found :  3 types and      63 ions
 Reading from existing POTCAR
 -----------------------------------------------------------------------------
|                                                                             |
|           W    W    AA    RRRRR   N    N  II  N    N   GGGG   !!!           |
|           W    W   A  A   R    R  NN   N  II  NN   N  G    G  !!!           |
|           W    W  A    A  R    R  N N  N  II  N N  N  G       !!!           |
|           W WW W  AAAAAA  RRRRR   N  N N  II  N  N N  G  GGG   !            |
|           WW  WW  A    A  R   R   N   NN  II  N   NN  G    G                |
|           W    W  A    A  R    R  N    N  II  N    N   GGGG   !!!           |
|                                                                             |
|     You use a magnetic or noncollinear calculation, but did not specify     |
|     the initial magnetic moment with the MAGMOM tag. Note that a            |
|     default of 1 will be used for all atoms. This ferromagnetic setup       |
|     may break the symmetry of the crystal, in particular it may rule        |
|     out finding an antiferromagnetic solution. Thence, we recommend         |
|     setting the initial magnetic moment manually or verifying carefully     |
|     that this magnetic setup is desired.                                    |
|                                                                             |
 -----------------------------------------------------------------------------

 scaLAPACK will be used selectively (only on CPU)
 Reading from existing POTCAR
 LDA part: xc-table for Pade appr. of Perdew
 POSCAR found type information on POSCAR FeCrPb
 POSCAR found :  3 types and      63 ions
 Optimize memory usage for KPAR
 POSCAR, INCAR and KPOINTS ok, starting setup
 FFT: planning ... GRIDC
 FFT: planning ... GRID_SOFT
 FFT: planning ... GRID
 WAVECAR not read
 WARNING: chargedensity file is incomplete
 WARNING: random wavefunctions but no delay for mixing, default for NELMDL
 entering main loop
       N       E                     dE             d eps       ncg     rms          rms(c)
DAV:   1     0.561702549052E+04    0.56170E+04   -0.24162E+05 15752   0.144E+03
DAV:   2    -0.626689347064E+02   -0.56797E+04   -0.54818E+04 14840   0.424E+02
DAV:   3    -0.521357566131E+03   -0.45869E+03   -0.40825E+03 15287   0.164E+02
DAV:   4    -0.579965635990E+03   -0.58608E+02   -0.54967E+02 26032   0.450E+01
DAV:   5    -0.583206701416E+03   -0.32411E+01   -0.30625E+01 24432   0.106E+01    0.929E+01
DAV:   6    -0.751083673191E+03   -0.16788E+03   -0.36658E+02 27032   0.925E+01    0.154E+02
DAV:   7    -0.691413214312E+03    0.59670E+02   -0.46772E+02 27448   0.116E+02    0.146E+02
DAV:   8    -0.548484835536E+03    0.14293E+03   -0.21290E+02 27136   0.787E+01    0.881E+01
DAV:   9    -0.531588369282E+03    0.16896E+02   -0.76264E+01 25416   0.374E+01    0.678E+01
DAV:  10    -0.517847231832E+03    0.13741E+02   -0.51316E+01 24288   0.273E+01    0.628E+01
DAV:  11    -0.497130117708E+03    0.20717E+02   -0.67811E+01 22312   0.328E+01    0.451E+01
DAV:  12    -0.492656358446E+03    0.44738E+01   -0.41225E+01 20688   0.216E+01    0.361E+01
DAV:  13    -0.492839540313E+03   -0.18318E+00   -0.49697E+00 21776   0.778E+00    0.344E+01
DAV:  14    -0.492765826313E+03    0.73714E-01   -0.54452E-01 23200   0.197E+00    0.351E+01
DAV:  15    -0.493708847881E+03   -0.94302E+00   -0.62340E-01 26808   0.289E+00    0.353E+01
DAV:  16    -0.495855106943E+03   -0.21463E+01   -0.37514E+00 25960   0.648E+00    0.317E+01
DAV:  17    -0.498894924045E+03   -0.30398E+01   -0.55094E+00 24608   0.845E+00    0.249E+01
DAV:  18    -0.500726552246E+03   -0.18316E+01   -0.39183E+00 25352   0.732E+00    0.242E+01
DAV:  19    -0.501084934727E+03   -0.35838E+00   -0.10827E+00 22848   0.322E+00    0.218E+01
DAV:  20    -0.501599319401E+03   -0.51438E+00   -0.52618E-01 25864   0.234E+00    0.208E+01
DAV:  21    -0.501936757944E+03   -0.33744E+00   -0.11525E+00 25608   0.379E+00    0.176E+01
DAV:  22    -0.502254195097E+03   -0.31744E+00   -0.11967E+00 25496   0.432E+00    0.156E+01
DAV:  23    -0.502354582103E+03   -0.10039E+00   -0.57867E-01 25728   0.308E+00    0.143E+01
DAV:  24    -0.502444808011E+03   -0.90226E-01   -0.23705E-01 24200   0.162E+00    0.134E+01
DAV:  25    -0.502752399602E+03   -0.30759E+00   -0.49632E-01 26600   0.252E+00    0.117E+01
DAV:  26    -0.503200030357E+03   -0.44763E+00   -0.15855E+00 26296   0.421E+00    0.953E+00
DAV:  27    -0.503354825308E+03   -0.15479E+00   -0.92012E-01 24720   0.268E+00    0.797E+00
DAV:  28    -0.503405366473E+03   -0.50541E-01   -0.23859E-01 25080   0.169E+00    0.700E+00
DAV:  29    -0.503444302552E+03   -0.38936E-01   -0.12552E-01 25104   0.147E+00    0.610E+00
DAV:  30    -0.503500159016E+03   -0.55856E-01   -0.19189E-01 25176   0.122E+00    0.545E+00
DAV:  31    -0.503551347462E+03   -0.51188E-01   -0.12620E-01 24944   0.114E+00    0.477E+00
DAV:  32    -0.503610261909E+03   -0.58914E-01   -0.15165E-01 26000   0.122E+00    0.411E+00
DAV:  33    -0.503645092242E+03   -0.34830E-01   -0.10975E-01 25680   0.101E+00    0.331E+00
DAV:  34    -0.503656537706E+03   -0.11445E-01   -0.64957E-02 25232   0.896E-01    0.246E+00
DAV:  35    -0.503658139011E+03   -0.16013E-02   -0.38507E-02 25912   0.770E-01    0.190E+00
DAV:  36    -0.503657930251E+03    0.20876E-03   -0.34529E-02 25264   0.566E-01    0.148E+00
DAV:  37    -0.503658000327E+03   -0.70076E-04   -0.11079E-02 23680   0.383E-01    0.126E+00
DAV:  38    -0.503660357418E+03   -0.23571E-02   -0.88437E-03 24608   0.352E-01    0.108E+00
DAV:  39    -0.503661413269E+03   -0.10559E-02   -0.16038E-02 24600   0.407E-01    0.828E-01
DAV:  40    -0.503661503060E+03   -0.89791E-04   -0.56624E-03 23248   0.216E-01    0.635E-01
DAV:  41    -0.503661663835E+03   -0.16077E-03   -0.29381E-03 25408   0.151E-01    0.545E-01
DAV:  42    -0.503661629552E+03    0.34283E-04   -0.13960E-03 24752   0.158E-01    0.416E-01
DAV:  43    -0.503661782365E+03   -0.15281E-03   -0.18464E-03 25376   0.131E-01    0.312E-01
DAV:  44    -0.503662138631E+03   -0.35627E-03   -0.18762E-03 25352   0.117E-01    0.205E-01
DAV:  45    -0.503662206634E+03   -0.68003E-04   -0.44279E-04 23048   0.655E-02    0.169E-01
DAV:  46    -0.503662277532E+03   -0.70897E-04   -0.22409E-04 24456   0.449E-02    0.147E-01
DAV:  47    -0.503662340609E+03   -0.63077E-04   -0.24079E-04 23928   0.457E-02    0.110E-01
DAV:  48    -0.503662354883E+03   -0.14274E-04   -0.12994E-04 22792   0.361E-02    0.899E-02
DAV:  49    -0.503662370768E+03   -0.15885E-04   -0.46087E-05 16000   0.290E-02    0.700E-02
DAV:  50    -0.503662401989E+03   -0.31221E-04   -0.10878E-04 22120   0.284E-02    0.536E-02
DAV:  51    -0.503662405510E+03   -0.35207E-05   -0.18944E-05 10176   0.202E-02
   1 F= -.50366241E+03 E0= -.50367002E+03  d E =-.503662E+03  mag=   111.1330
 curvature:   0.00 expect dE= 0.000E+00 dE for cont linesearch  0.000E+00
 trial: gam= 0.00000 g(F)=  0.936E+00 g(S)=  0.000E+00 ort = 0.000E+00 (trialstep = 0.100E+01)
 search vector abs. value=  0.936E+00
 bond charge predicted
       N       E                     dE             d eps       ncg     rms          rms(c)
DAV:   1    -0.503269626670E+03    0.39278E+00   -0.30179E+02 15127   0.194E+01    0.742E+00
DAV:   2    -0.504309428610E+03   -0.10398E+01   -0.66223E+00 23624   0.897E+00    0.951E+00
DAV:   3    -0.505037653520E+03   -0.72822E+00   -0.52178E+00 25832   0.125E+01    0.141E+01
DAV:   4    -0.503966018062E+03    0.10716E+01   -0.19800E+00 26978   0.709E+00    0.443E+00
DAV:   5    -0.504073327469E+03   -0.10731E+00   -0.15645E-01 24784   0.204E+00    0.345E+00
DAV:   6    -0.504156945866E+03   -0.83618E-01   -0.13900E-01 23856   0.207E+00    0.206E+00
DAV:   7    -0.504173562200E+03   -0.16616E-01   -0.41976E-02 23488   0.987E-01    0.134E+00
DAV:   8    -0.504171612494E+03    0.19497E-02   -0.87263E-03 22024   0.456E-01    0.111E+00
DAV:   9    -0.504169289459E+03    0.23230E-02   -0.26917E-03 23648   0.251E-01    0.902E-01
DAV:  10    -0.504165966343E+03    0.33231E-02   -0.71701E-03 26064   0.344E-01    0.625E-01
DAV:  11    -0.504164998971E+03    0.96737E-03   -0.48004E-03 22752   0.244E-01    0.634E-01
DAV:  12    -0.504164433267E+03    0.56570E-03   -0.12879E-03 17744   0.154E-01    0.525E-01
DAV:  13    -0.504163541561E+03    0.89171E-03   -0.17640E-03 26920   0.203E-01    0.219E-01
DAV:  14    -0.504163719972E+03   -0.17841E-03   -0.88360E-04 25144   0.127E-01    0.155E-01
DAV:  15    -0.504163784008E+03   -0.64037E-04   -0.22636E-04 19560   0.572E-02    0.141E-01
DAV:  16    -0.504163742593E+03    0.41415E-04   -0.15385E-04 21136   0.543E-02    0.718E-02
DAV:  17    -0.504163758871E+03   -0.16278E-04   -0.87285E-05 14224   0.421E-02    0.698E-02
DAV:  18    -0.504163763527E+03   -0.46567E-05   -0.58812E-05 16072   0.210E-02
   2 F= -.50416376E+03 E0= -.50417028E+03  d E =-.501358E+00  mag=   111.2535
 trial-energy change:   -0.501358  1 .order   -0.539598   -0.935634   -0.143562
 step:   1.2893(harm=  1.1812)  dis= 0.17250  next Energy=  -504.183603 (dE=-0.521E+00)
 bond charge predicted
       N       E                     dE             d eps       ncg     rms          rms(c)
DAV:   1    -0.504072784177E+03    0.90975E-01   -0.21813E+01 15013   0.487E+00    0.194E+00
DAV:   2    -0.504167129919E+03   -0.94346E-01   -0.79633E-01 22872   0.188E+00    0.192E+00
DAV:   3    -0.504237629469E+03   -0.70500E-01   -0.33108E-01 25136   0.279E+00    0.369E+00
DAV:   4    -0.504166231351E+03    0.71398E-01   -0.18467E-01 26016   0.202E+00    0.123E+00
DAV:   5    -0.504178669130E+03   -0.12438E-01   -0.14233E-02 26224   0.598E-01    0.992E-01
DAV:   6    -0.504183098816E+03   -0.44297E-02   -0.16356E-02 24400   0.739E-01    0.516E-01
DAV:   7    -0.504183217748E+03   -0.11893E-03   -0.28169E-03 21808   0.225E-01    0.383E-01
DAV:   8    -0.504182830634E+03    0.38711E-03   -0.54622E-04 23688   0.110E-01    0.274E-01
DAV:   9    -0.504182652263E+03    0.17837E-03   -0.59062E-04 24808   0.961E-02    0.211E-01
DAV:  10    -0.504182799943E+03   -0.14768E-03   -0.80616E-04 24592   0.104E-01    0.268E-01
DAV:  11    -0.504182686968E+03    0.11297E-03   -0.23710E-04 16216   0.542E-02    0.228E-01
DAV:  12    -0.504182446627E+03    0.24034E-03   -0.37102E-04 24848   0.858E-02    0.891E-02
DAV:  13    -0.504182452557E+03   -0.59298E-05   -0.16678E-04 22216   0.524E-02    0.445E-02
DAV:  14    -0.504182467194E+03   -0.14637E-04   -0.36798E-05 14032   0.227E-02    0.393E-02
DAV:  15    -0.504182468207E+03   -0.10124E-05   -0.76682E-06  8296   0.130E-02
   3 F= -.50418247E+03 E0= -.50418876E+03  d E =-.520063E+00  mag=   111.2744
 curvature:  -0.38 expect dE=-0.206E-01 dE for cont linesearch -0.636E-04
 ZBRENT: interpolating
 opt :   1.2661  next Energy=  -504.182613 (dE=-0.520E+00)
 bond charge predicted
       N       E                     dE             d eps       ncg     rms          rms(c)
DAV:   1    -0.504182125327E+03    0.34187E-03   -0.14001E-01 14940   0.384E-01    0.151E-01
DAV:   2    -0.504182704130E+03   -0.57880E-03   -0.34529E-03 25192   0.175E-01    0.231E-01
DAV:   3    -0.504182548184E+03    0.15595E-03   -0.16414E-03 22408   0.198E-01    0.166E-01
DAV:   4    -0.504182532815E+03    0.15369E-04   -0.27146E-04 17656   0.783E-02    0.926E-02
DAV:   5    -0.504182602029E+03   -0.69214E-04   -0.67442E-05 14112   0.544E-02    0.736E-02
DAV:   6    -0.504182613696E+03   -0.11667E-04   -0.10080E-04 20720   0.542E-02    0.309E-02
DAV:   7    -0.504182616522E+03   -0.28263E-05   -0.12759E-05  8936   0.143E-02
   4 F= -.50418262E+03 E0= -.50418892E+03  d E =-.520211E+00  mag=   111.2728
 curvature:  -0.87 expect dE=-0.447E-01 dE for cont linesearch -0.125E-05
 trial: gam= 0.05629 g(F)=  0.515E-01 g(S)=  0.000E+00 ort =-0.116E-02 (trialstep = 0.105E+01)
 search vector abs. value=  0.543E-01
 bond charge predicted
       N       E                     dE             d eps       ncg     rms          rms(c)
DAV:   1    -0.504160597384E+03    0.22016E-01   -0.13812E+01 15000   0.525E+00    0.175E+00
DAV:   2    -0.504234696791E+03   -0.74099E-01   -0.43590E-01 24528   0.226E+00    0.258E+00
DAV:   3    -0.504227914478E+03    0.67823E-02   -0.28600E-01 24248   0.260E+00    0.242E+00
DAV:   4    -0.504212367377E+03    0.15547E-01   -0.55090E-02 23893   0.111E+00    0.120E+00
DAV:   5    -0.504219123708E+03   -0.67563E-02   -0.12690E-02 24000   0.660E-01    0.844E-01
DAV:   6    -0.504223764793E+03   -0.46411E-02   -0.91588E-03 23360   0.491E-01    0.429E-01
DAV:   7    -0.504224196367E+03   -0.43157E-03   -0.23904E-03 21536   0.219E-01    0.314E-01
DAV:   8    -0.504224180758E+03    0.15609E-04   -0.35660E-04 23568   0.700E-02    0.309E-01
DAV:   9    -0.504223957534E+03    0.22322E-03   -0.29162E-04 22704   0.607E-02    0.247E-01
DAV:  10    -0.504223619064E+03    0.33847E-03   -0.74246E-04 24552   0.101E-01    0.136E-01
DAV:  11    -0.504223597711E+03    0.21353E-04   -0.15998E-04 18184   0.386E-02    0.109E-01
DAV:  12    -0.504223611650E+03   -0.13939E-04   -0.10773E-04 19816   0.424E-02    0.920E-02
DAV:  13    -0.504223632630E+03   -0.20980E-04   -0.11022E-04 20152   0.303E-02    0.674E-02
DAV:  14    -0.504223625446E+03    0.71842E-05   -0.13672E-05  8968   0.211E-02
   5 F= -.50422363E+03 E0= -.50422974E+03  d E =-.410089E-01  mag=   111.2969
 trial-energy change:   -0.041009  1 .order   -0.040924   -0.054177   -0.027672
 step:   2.1528(harm=  2.1528)  dis= 0.03985  next Energy=  -504.237985 (dE=-0.554E-01)
 bond charge predicted
       N       E                     dE             d eps       ncg     rms          rms(c)
DAV:   1    -0.504169855417E+03    0.53777E-01   -0.15057E+01 15000   0.548E+00    0.183E+00
DAV:   2    -0.504256808063E+03   -0.86953E-01   -0.49307E-01 24736   0.245E+00    0.286E+00
DAV:   3    -0.504240857535E+03    0.15951E-01   -0.32597E-01 24336   0.277E+00    0.245E+00
DAV:   4    -0.504226675179E+03    0.14182E-01   -0.56883E-02 23773   0.113E+00    0.125E+00
DAV:   5    -0.504234039414E+03   -0.73642E-02   -0.13952E-02 23760   0.695E-01    0.887E-01
DAV:   6    -0.504239128811E+03   -0.50894E-02   -0.98470E-03 23160   0.512E-01    0.454E-01
DAV:   7    -0.504239623417E+03   -0.49461E-03   -0.26769E-03 21728   0.233E-01    0.323E-01
DAV:   8    -0.504239628930E+03   -0.55139E-05   -0.38818E-04 23688   0.724E-02    0.320E-01
DAV:   9    -0.504239440971E+03    0.18796E-03   -0.29287E-04 22728   0.612E-02    0.265E-01
DAV:  10    -0.504239080495E+03    0.36048E-03   -0.81222E-04 24472   0.106E-01    0.144E-01
DAV:  11    -0.504239064143E+03    0.16352E-04   -0.17265E-04 18992   0.397E-02    0.115E-01
DAV:  12    -0.504239085362E+03   -0.21220E-04   -0.11150E-04 18352   0.472E-02    0.101E-01
DAV:  13    -0.504239107318E+03   -0.21956E-04   -0.15541E-04 21136   0.343E-02    0.713E-02
DAV:  14    -0.504239095936E+03    0.11382E-04   -0.16699E-05  9008   0.233E-02    0.496E-02
DAV:  15    -0.504239089844E+03    0.60923E-05   -0.20892E-05  9128   0.238E-02
   6 F= -.50423909E+03 E0= -.50424500E+03  d E =-.564733E-01  mag=   111.3068
 curvature:  -1.14 expect dE=-0.167E-01 dE for cont linesearch -0.413E-04
 trial: gam= 0.28905 g(F)=  0.147E-01 g(S)=  0.000E+00 ort = 0.140E-02 (trialstep = 0.127E+01)
 search vector abs. value=  0.200E-01
 bond charge predicted
       N       E                     dE             d eps       ncg     rms          rms(c)
DAV:   1    -0.504201646140E+03    0.37450E-01   -0.92231E+00 15068   0.460E+00    0.109E+00
DAV:   2    -0.504249265532E+03   -0.47619E-01   -0.43472E-01 15994   0.135E+00    0.962E-01
DAV:   3    -0.504276479492E+03   -0.27214E-01   -0.10175E-01 26248   0.154E+00    0.217E+00
DAV:   4    -0.504252061415E+03    0.24418E-01   -0.82338E-02 27624   0.133E+00    0.704E-01
DAV:   5    -0.504255849094E+03   -0.37877E-02   -0.92062E-03 26952   0.520E-01    0.577E-01
DAV:   6    -0.504256382006E+03   -0.53291E-03   -0.32392E-03 24496   0.325E-01    0.312E-01
DAV:   7    -0.504256415238E+03   -0.33232E-04   -0.10102E-03 22728   0.119E-01    0.182E-01
DAV:   8    -0.504256347170E+03    0.68068E-04   -0.25277E-04 20808   0.599E-02    0.135E-01
DAV:   9    -0.504256310074E+03    0.37095E-04   -0.13176E-04 17256   0.374E-02    0.111E-01
DAV:  10    -0.504256243232E+03    0.66843E-04   -0.19771E-04 22720   0.390E-02    0.677E-02
DAV:  11    -0.504256245664E+03   -0.24324E-05   -0.78009E-05 17144   0.382E-02
   7 F= -.50425625E+03 E0= -.50426205E+03  d E =-.171558E-01  mag=   111.3469
 ZBRENT: can't locate minimum, use default step
 trial-energy change:   -0.017156  1 .order   -0.017297   -0.019182   -0.015413
 step:   5.0925(harm=  6.4790)  dis= 0.08906  next Energy=  -504.287898 (dE=-0.488E-01)
 bond charge predicted
       N       E                     dE             d eps       ncg     rms          rms(c)
DAV:   1    -0.503914855593E+03    0.34139E+00   -0.87487E+01 15176   0.142E+01    0.324E+00
DAV:   2    -0.504209806293E+03   -0.29495E+00   -0.26239E+00 15736   0.388E+00    0.253E+00
DAV:   3    -0.504443586995E+03   -0.23378E+00   -0.66377E-01 28152   0.385E+00    0.607E+00
DAV:   4    -0.504250822767E+03    0.19276E+00   -0.63380E-01 27576   0.386E+00    0.220E+00
DAV:   5    -0.504279968682E+03   -0.29146E-01   -0.87038E-02 27168   0.157E+00    0.167E+00
DAV:   6    -0.504283015047E+03   -0.30464E-02   -0.32534E-02 24544   0.104E+00    0.691E-01
DAV:   7    -0.504285093865E+03   -0.20788E-02   -0.85838E-03 21357   0.368E-01    0.565E-01
DAV:   8    -0.504284364455E+03    0.72941E-03   -0.16970E-03 24336   0.192E-01    0.426E-01
DAV:   9    -0.504283910069E+03    0.45439E-03   -0.61697E-04 23093   0.768E-02    0.354E-01
DAV:  10    -0.504283309294E+03    0.60078E-03   -0.24717E-03 24264   0.178E-01    0.295E-01
DAV:  11    -0.504283264151E+03    0.45142E-04   -0.72825E-04 21472   0.780E-02    0.285E-01
DAV:  12    -0.504282994526E+03    0.26963E-03   -0.47369E-04 25448   0.108E-01    0.147E-01
DAV:  13    -0.504283087424E+03   -0.92899E-04   -0.55503E-04 24677   0.105E-01    0.137E-01
DAV:  14    -0.504283123185E+03   -0.35761E-04   -0.14882E-04 17952   0.404E-02    0.117E-01
DAV:  15    -0.504283098229E+03    0.24956E-04   -0.37049E-05 10517   0.337E-02    0.730E-02
DAV:  16    -0.504283090947E+03    0.72827E-05   -0.77229E-05 14944   0.331E-02
   8 F= -.50428309E+03 E0= -.50428871E+03  d E =-.440011E-01  mag=   111.4458
 curvature:  -4.00 expect dE=-0.475E-01 dE for cont linesearch -0.903E-03
 trial: gam= 0.73534 g(F)=  0.119E-01 g(S)=  0.000E+00 ort = 0.213E-02 (trialstep = 0.158E+01)
 search vector abs. value=  0.258E-01
 bond charge predicted
       N       E                     dE             d eps       ncg     rms          rms(c)
DAV:   1    -0.504203259857E+03    0.79838E-01   -0.20780E+01 15930   0.476E+00    0.112E+00
DAV:   2    -0.504295232651E+03   -0.91973E-01   -0.87999E-01 17663   0.135E+00    0.929E-01
DAV:   3    -0.504334049975E+03   -0.38817E-01   -0.13215E-01 27016   0.173E+00    0.253E+00
DAV:   4    -0.504297579457E+03    0.36471E-01   -0.94014E-02 27616   0.142E+00    0.610E-01
DAV:   5    -0.504303543429E+03   -0.59640E-02   -0.70478E-03 24840   0.389E-01    0.505E-01
DAV:   6    -0.504303253282E+03    0.29015E-03   -0.29593E-03 24824   0.323E-01    0.288E-01
DAV:   7    -0.504303231173E+03    0.22108E-04   -0.84117E-04 23496   0.152E-01    0.176E-01
DAV:   8    -0.504303168833E+03    0.62341E-04   -0.28260E-04 22296   0.772E-02    0.128E-01
DAV:   9    -0.504303176072E+03   -0.72394E-05   -0.10972E-04 16890   0.315E-02    0.110E-01
DAV:  10    -0.504303189408E+03   -0.13336E-04   -0.29785E-04 22904   0.448E-02    0.704E-02
DAV:  11    -0.504303194769E+03   -0.53612E-05   -0.65457E-05 17725   0.284E-02
   9 F= -.50430319E+03 E0= -.50430868E+03  d E =-.201038E-01  mag=   111.4932
 ZBRENT: can't locate minimum, use default step
 trial-energy change:   -0.020104  1 .order   -0.020202   -0.021217   -0.019186
 step:   6.3139(harm= 16.4929)  dis= 0.14306  next Energy=  -504.393934 (dE=-0.111E+00)
 bond charge predicted
       N       E                     dE             d eps       ncg     rms          rms(c)
DAV:   1    -0.503837377218E+03    0.46581E+00   -0.21835E+02 16041   0.160E+01    0.322E+00
DAV:   2    -0.504313686204E+03   -0.47631E+00   -0.41207E+00 20402   0.429E+00    0.361E+00
DAV:   3    -0.504425221155E+03   -0.11153E+00   -0.88932E-01 26152   0.459E+00    0.521E+00
DAV:   4    -0.504310845323E+03    0.11438E+00   -0.32028E-01 27080   0.272E+00    0.176E+00
DAV:   5    -0.504347472784E+03   -0.36627E-01   -0.34197E-02 23544   0.781E-01    0.117E+00
DAV:   6    -0.504355993658E+03   -0.85209E-02   -0.30657E-02 24602   0.109E+00    0.100E+00
DAV:   7    -0.504352954447E+03    0.30392E-02   -0.69885E-03 24464   0.469E-01    0.635E-01
DAV:   8    -0.504351982150E+03    0.97230E-03   -0.24758E-03 23440   0.223E-01    0.427E-01
DAV:   9    -0.504351728985E+03    0.25317E-03   -0.10678E-03 23512   0.113E-01    0.331E-01
DAV:  10    -0.504351687747E+03    0.41238E-04   -0.21411E-03 21520   0.123E-01    0.251E-01
DAV:  11    -0.504351789494E+03   -0.10175E-03   -0.90026E-04 22640   0.822E-02    0.233E-01
DAV:  12    -0.504351751524E+03    0.37970E-04   -0.25417E-04 21808   0.753E-02    0.160E-01
DAV:  13    -0.504351776118E+03   -0.24594E-04   -0.24487E-04 17216   0.761E-02    0.992E-02
DAV:  14    -0.504351881630E+03   -0.10551E-03   -0.27550E-04 22080   0.428E-02    0.981E-02
DAV:  15    -0.504351880675E+03    0.95503E-06   -0.46330E-05 15040   0.304E-02
  10 F= -.50435188E+03 E0= -.50435719E+03  d E =-.687897E-01  mag=   111.6380
 curvature:  -8.46 expect dE=-0.130E+00 dE for cont linesearch -0.239E-01
 ZBRENT: increasing intervall
 opt :  15.7847  next Energy=  -504.398491 (dE=-0.115E+00)
 bond charge predicted
       N       E                     dE             d eps       ncg     rms          rms(c)
DAV:   1    -0.498489460413E+03    0.58624E+01   -0.12735E+03 15972   0.413E+01    0.700E+00
DAV:   2    -0.504211134119E+03   -0.57217E+01   -0.53365E+01 21560   0.106E+01    0.894E+00
DAV:   3    -0.504782097054E+03   -0.57096E+00   -0.63151E+00 26032   0.112E+01    0.111E+01
DAV:   4    -0.504236884818E+03    0.54521E+00   -0.13440E+00 26941   0.567E+00    0.393E+00
DAV:   5    -0.504326292382E+03   -0.89408E-01   -0.13610E-01 24400   0.183E+00    0.310E+00
DAV:   6    -0.504404509003E+03   -0.78217E-01   -0.13877E-01 24152   0.215E+00    0.220E+00
DAV:   7    -0.504419496953E+03   -0.14988E-01   -0.50671E-02 24320   0.109E+00    0.144E+00
DAV:   8    -0.504417064364E+03    0.24326E-02   -0.12073E-02 22784   0.520E-01    0.109E+00
DAV:   9    -0.504414689873E+03    0.23745E-02   -0.42060E-03 24464   0.283E-01    0.795E-01
DAV:  10    -0.504413360935E+03    0.13289E-02   -0.45506E-03 25104   0.248E-01    0.544E-01
DAV:  11    -0.504413531393E+03   -0.17046E-03   -0.65161E-03 23280   0.275E-01    0.515E-01
DAV:  12    -0.504413997932E+03   -0.46654E-03   -0.22100E-03 19304   0.142E-01    0.514E-01
DAV:  13    -0.504413498749E+03    0.49918E-03   -0.12678E-03 26512   0.167E-01    0.299E-01
DAV:  14    -0.504413731079E+03   -0.23233E-03   -0.15040E-03 27000   0.180E-01    0.198E-01
DAV:  15    -0.504413966227E+03   -0.23515E-03   -0.49357E-04 21704   0.686E-02    0.196E-01
DAV:  16    -0.504413958348E+03    0.78790E-05   -0.21177E-04 23368   0.535E-02    0.143E-01
DAV:  17    -0.504413927684E+03    0.30665E-04   -0.17926E-04 21056   0.561E-02    0.835E-02
DAV:  18    -0.504413966079E+03   -0.38395E-04   -0.13351E-04 22408   0.342E-02    0.827E-02
DAV:  19    -0.504413981716E+03   -0.15637E-04   -0.49752E-05 15456   0.236E-02    0.698E-02
DAV:  20    -0.504413979176E+03    0.25399E-05   -0.77593E-05 15936   0.399E-02
  11 F= -.50441398E+03 E0= -.50441955E+03  d E =-.130888E+00  mag=   111.9263
 curvature: -16.51 expect dE=-0.120E+01 dE for cont linesearch -0.141E-01
 ZBRENT: increasing intervall
 opt :  34.7263  next Energy=  -504.430353 (dE=-0.147E+00)
 bond charge predicted
       N       E                     dE             d eps       ncg     rms          rms(c)
DAV:   1    -0.440831920232E+03    0.63582E+02   -0.35994E+03 15485   0.711E+01    0.190E+01
DAV:   2    -0.503058764080E+03   -0.62227E+02   -0.57806E+02 17176   0.310E+01    0.290E+01
DAV:   3    -0.509634273364E+03   -0.65755E+01   -0.54625E+01 19896   0.378E+01    0.349E+01
DAV:   4    -0.503446735328E+03    0.61875E+01   -0.12737E+01 22344   0.212E+01    0.105E+01
DAV:   5    -0.503768056751E+03   -0.32132E+00   -0.20183E+00 18576   0.526E+00    0.748E+00
DAV:   6    -0.504110393661E+03   -0.34234E+00   -0.51137E-01 25597   0.294E+00    0.670E+00
DAV:   7    -0.504454750548E+03   -0.34436E+00   -0.38356E-01 26776   0.333E+00    0.604E+00
DAV:   8    -0.504480801260E+03   -0.26051E-01   -0.26033E-01 24456   0.277E+00    0.385E+00
DAV:   9    -0.504443744619E+03    0.37057E-01   -0.11585E-01 24304   0.168E+00    0.192E+00
DAV:  10    -0.504441900098E+03    0.18445E-02   -0.46748E-02 25472   0.803E-01    0.154E+00
DAV:  11    -0.504440211221E+03    0.16889E-02   -0.13840E-02 17568   0.468E-01    0.129E+00
DAV:  12    -0.504437139315E+03    0.30719E-02   -0.16511E-02 24728   0.416E-01    0.979E-01
DAV:  13    -0.504435060199E+03    0.20791E-02   -0.96173E-03 24352   0.361E-01    0.746E-01
DAV:  14    -0.504434815052E+03    0.24515E-03   -0.55844E-03 24168   0.239E-01    0.642E-01
DAV:  15    -0.504435643684E+03   -0.82863E-03   -0.34764E-03 24088   0.201E-01    0.491E-01
DAV:  16    -0.504436958269E+03   -0.13146E-02   -0.25818E-03 24576   0.191E-01    0.333E-01
DAV:  17    -0.504437281947E+03   -0.32368E-03   -0.90029E-04 23792   0.107E-01    0.259E-01
DAV:  18    -0.504437383319E+03   -0.10137E-03   -0.28140E-04 23768   0.590E-02    0.220E-01
DAV:  19    -0.504437476667E+03   -0.93348E-04   -0.65017E-04 24888   0.771E-02    0.154E-01
DAV:  20    -0.504437526690E+03   -0.50023E-04   -0.31118E-04 24840   0.574E-02    0.133E-01
DAV:  21    -0.504437581399E+03   -0.54709E-04   -0.11579E-04 22392   0.416E-02    0.108E-01
DAV:  22    -0.504437679266E+03   -0.97867E-04   -0.33117E-04 25600   0.572E-02    0.923E-02
DAV:  23    -0.504437697328E+03   -0.18063E-04   -0.11548E-04 20984   0.360E-02    0.713E-02
DAV:  24    -0.504437710584E+03   -0.13255E-04   -0.41307E-05 13120   0.239E-02    0.507E-02
DAV:  25    -0.504437737063E+03   -0.26479E-04   -0.16654E-04 22328   0.268E-02    0.527E-02
DAV:  26    -0.504437744671E+03   -0.76082E-05   -0.17725E-05 10256   0.120E-02
  12 F= -.50443774E+03 E0= -.50444404E+03  d E =-.154654E+00  mag=   112.3529
 curvature: -19.13 expect dE=-0.511E+01 dE for cont linesearch -0.149E-01
 ZBRENT: bracketing found
 ZBRENT: interpolating
 opt :  25.4824  next Energy=  -504.458457 (dE=-0.175E+00)
 bond charge predicted
       N       E                     dE             d eps       ncg     rms          rms(c)
DAV:   1    -0.499771102795E+03    0.46666E+01   -0.11993E+03 16407   0.403E+01    0.684E+00
DAV:   2    -0.504009342390E+03   -0.42382E+01   -0.40849E+01 17272   0.826E+00    0.543E+00
DAV:   3    -0.505523117016E+03   -0.15138E+01   -0.46570E+00 27712   0.103E+01    0.148E+01
DAV:   4    -0.504281476267E+03    0.12416E+01   -0.30078E+00 27840   0.874E+00    0.424E+00
DAV:   5    -0.504378416907E+03   -0.96941E-01   -0.18161E-01 25992   0.193E+00    0.322E+00
DAV:   6    -0.504432523012E+03   -0.54106E-01   -0.11871E-01 24424   0.194E+00    0.161E+00
DAV:   7    -0.504446880774E+03   -0.14358E-01   -0.42500E-02 22656   0.979E-01    0.831E-01
DAV:   8    -0.504446961645E+03   -0.80871E-04   -0.72544E-03 18381   0.338E-01    0.750E-01
DAV:   9    -0.504446868019E+03    0.93627E-04   -0.24375E-03 24296   0.187E-01    0.687E-01
DAV:  10    -0.504446194275E+03    0.67374E-03   -0.46831E-03 22762   0.218E-01    0.495E-01
DAV:  11    -0.504445896293E+03    0.29798E-03   -0.38369E-03 24304   0.195E-01    0.327E-01
DAV:  12    -0.504446172545E+03   -0.27625E-03   -0.12550E-03 23232   0.115E-01    0.291E-01
DAV:  13    -0.504446455998E+03   -0.28345E-03   -0.55476E-04 23024   0.920E-02    0.214E-01
DAV:  14    -0.504446768019E+03   -0.31202E-03   -0.65024E-04 24960   0.111E-01    0.165E-01
DAV:  15    -0.504446877998E+03   -0.10998E-03   -0.21770E-04 20544   0.492E-02    0.157E-01
DAV:  16    -0.504446851363E+03    0.26636E-04   -0.12868E-04 20896   0.484E-02    0.108E-01
DAV:  17    -0.504446862868E+03   -0.11506E-04   -0.18004E-04 22432   0.533E-02    0.800E-02
DAV:  18    -0.504446897332E+03   -0.34464E-04   -0.10780E-04 20496   0.332E-02    0.942E-02
DAV:  19    -0.504446882385E+03    0.14947E-04   -0.37790E-05 12576   0.320E-02    0.589E-02
DAV:  20    -0.504446874764E+03    0.76209E-05   -0.51808E-05 12912   0.298E-02
  13 F= -.50444687E+03 E0= -.50445289E+03  d E =-.163784E+00  mag=   112.1840
 curvature: -26.64 expect dE=-0.432E+01 dE for cont linesearch -0.331E-02
 trial: gam=14.09849 g(F)=  0.162E+00 g(S)=  0.000E+00 ort = 0.179E-02 (trialstep = 0.307E-01)
 search vector abs. value=  0.535E+01
 bond charge predicted
       N       E                     dE             d eps       ncg     rms          rms(c)
DAV:   1    -0.504446926780E+03   -0.44395E-04   -0.16710E+00 16595   0.110E+00    0.267E-01
DAV:   2    -0.504452327983E+03   -0.54012E-02   -0.51233E-02 20176   0.333E-01    0.265E-01
DAV:   3    -0.504453869248E+03   -0.15413E-02   -0.73063E-03 26536   0.422E-01    0.537E-01
DAV:   4    -0.504452320604E+03    0.15486E-02   -0.42117E-03 25245   0.305E-01    0.147E-01
DAV:   5    -0.504452536532E+03   -0.21593E-03   -0.27253E-04 24008   0.771E-02    0.131E-01
DAV:   6    -0.504452611800E+03   -0.75268E-04   -0.27366E-04 23936   0.951E-02    0.783E-02
DAV:   7    -0.504452588189E+03    0.23611E-04   -0.10402E-04 15256   0.563E-02    0.345E-02
DAV:   8    -0.504452592307E+03   -0.41180E-05   -0.21965E-05 10064   0.131E-02
  14 F= -.50445259E+03 E0= -.50445866E+03  d E =-.571754E-02  mag=   112.1931
 ZBRENT: can't locate minimum, use default step
 trial-energy change:   -0.005718  1 .order   -0.005755   -0.005755   -0.005755
 step:   0.1229(harm=********)  dis= 0.04120  next Energy= -1444.674556 (dE=-0.940E+03)
 bond charge predicted
       N       E                     dE             d eps       ncg     rms          rms(c)
DAV:   1    -0.504402729598E+03    0.49859E-01   -0.15061E+01 16671   0.336E+00    0.789E-01
DAV:   2    -0.504465456149E+03   -0.62727E-01   -0.61384E-01 16876   0.903E-01    0.560E-01
DAV:   3    -0.504478772352E+03   -0.13316E-01   -0.37362E-02 28008   0.885E-01    0.144E+00
DAV:   4    -0.504467462929E+03    0.11309E-01   -0.32392E-02 27744   0.853E-01    0.453E-01
DAV:   5    -0.504469890816E+03   -0.24279E-02   -0.36169E-03 26576   0.326E-01    0.404E-01
DAV:   6    -0.504469656377E+03    0.23444E-03   -0.18320E-03 25016   0.250E-01    0.155E-01
DAV:   7    -0.504469708194E+03   -0.51817E-04   -0.41487E-04 19341   0.729E-02    0.115E-01
DAV:   8    -0.504469698350E+03    0.98440E-05   -0.68940E-05 16792   0.327E-02
  15 F= -.50446970E+03 E0= -.50447583E+03  d E =-.228236E-01  mag=   112.2227
 curvature:  -2.63 expect dE=-0.439E+00 dE for cont linesearch -0.176E-01
 ZBRENT: increasing intervall
 opt :   0.3072  next Energy=  -504.504895 (dE=-0.580E-01)
 bond charge predicted
       N       E                     dE             d eps       ncg     rms          rms(c)
DAV:   1    -0.504392121577E+03    0.77587E-01   -0.64388E+01 16794   0.705E+00    0.143E+00
DAV:   2    -0.504485174085E+03   -0.93053E-01   -0.86615E-01 16331   0.156E+00    0.108E+00
DAV:   3    -0.504496165206E+03   -0.10991E-01   -0.43236E-02 26360   0.428E-01    0.848E-01
DAV:   4    -0.504515129142E+03   -0.18964E-01   -0.44412E-02 27856   0.956E-01    0.168E+00
DAV:   5    -0.504510474850E+03    0.46543E-02   -0.92141E-02 27384   0.143E+00    0.121E+00
DAV:   6    -0.504503116764E+03    0.73581E-02   -0.21828E-02 27376   0.766E-01    0.283E-01
DAV:   7    -0.504503333588E+03   -0.21682E-03   -0.24657E-03 22008   0.202E-01    0.261E-01
DAV:   8    -0.504503311056E+03    0.22532E-04   -0.45816E-04 17192   0.806E-02    0.231E-01
DAV:   9    -0.504503216230E+03    0.94826E-04   -0.37739E-04 25896   0.782E-02    0.169E-01
DAV:  10    -0.504503285056E+03   -0.68826E-04   -0.66936E-04 22664   0.812E-02    0.147E-01
DAV:  11    -0.504503297795E+03   -0.12740E-04   -0.19388E-04 21056   0.483E-02    0.117E-01
DAV:  12    -0.504503292918E+03    0.48775E-05   -0.45684E-05 13304   0.338E-02
  16 F= -.50450329E+03 E0= -.50450954E+03  d E =-.564182E-01  mag=   112.2860
 curvature:  -5.26 expect dE=-0.917E+00 dE for cont linesearch -0.316E-01
 ZBRENT: increasing intervall
 opt :   0.6759  next Energy=  -504.565617 (dE=-0.119E+00)
 bond charge predicted
       N       E                     dE             d eps       ncg     rms          rms(c)
DAV:   1    -0.503973969792E+03    0.52933E+00   -0.30129E+02 16693   0.163E+01    0.289E+00
DAV:   2    -0.504492251559E+03   -0.51828E+00   -0.49170E+00 16654   0.337E+00    0.217E+00
DAV:   3    -0.504619966406E+03   -0.12771E+00   -0.36211E-01 28112   0.254E+00    0.424E+00
DAV:   4    -0.504541128283E+03    0.78838E-01   -0.34933E-01 27440   0.280E+00    0.192E+00
DAV:   5    -0.504566155951E+03   -0.25028E-01   -0.68792E-02 26952   0.142E+00    0.146E+00
DAV:   6    -0.504562548744E+03    0.36072E-02   -0.27210E-02 24928   0.951E-01    0.469E-01
DAV:   7    -0.504563373341E+03   -0.82460E-03   -0.58832E-03 17872   0.276E-01    0.416E-01
DAV:   8    -0.504563312474E+03    0.60867E-04   -0.90276E-04 24200   0.109E-01    0.361E-01
DAV:   9    -0.504563243007E+03    0.69466E-04   -0.40923E-04 22800   0.649E-02    0.296E-01
DAV:  10    -0.504563238347E+03    0.46605E-05   -0.16962E-03 23192   0.136E-01    0.203E-01
DAV:  11    -0.504563293519E+03   -0.55172E-04   -0.56375E-04 21728   0.698E-02    0.166E-01
DAV:  12    -0.504563336588E+03   -0.43069E-04   -0.13593E-04 21712   0.445E-02    0.127E-01
DAV:  13    -0.504563421950E+03   -0.85363E-04   -0.17478E-04 21656   0.536E-02    0.830E-02
DAV:  14    -0.504563472636E+03   -0.50686E-04   -0.12333E-04 19096   0.314E-02    0.635E-02
DAV:  15    -0.504563476169E+03   -0.35325E-05   -0.19149E-05  9760   0.184E-02
  17 F= -.50456348E+03 E0= -.50456994E+03  d E =-.116601E+00  mag=   112.3795
 curvature: -10.39 expect dE=-0.197E+01 dE for cont linesearch -0.377E-01
 ZBRENT: increasing intervall
 opt :   1.4132  next Energy=  -504.636930 (dE=-0.190E+00)
 bond charge predicted
       N       E                     dE             d eps       ncg     rms          rms(c)
DAV:   1    -0.488755902252E+03    0.15808E+02   -0.18573E+03 16177   0.452E+01    0.853E+00
DAV:   2    -0.503427726821E+03   -0.14672E+02   -0.14671E+02 16137   0.902E+00    0.443E+00
DAV:   3    -0.504473516115E+03   -0.10458E+01   -0.91369E+00 27728   0.364E+00    0.475E+00
DAV:   4    -0.504644094412E+03   -0.17058E+00   -0.14239E+00 27152   0.498E+00    0.597E+00
DAV:   5    -0.504576411455E+03    0.67683E-01   -0.64132E-01 27440   0.391E+00    0.301E+00
DAV:   6    -0.504591243794E+03   -0.14832E-01   -0.10660E-01 26176   0.189E+00    0.165E+00
DAV:   7    -0.504604488684E+03   -0.13245E-01   -0.43316E-02 22544   0.920E-01    0.855E-01
DAV:   8    -0.504605118945E+03   -0.63026E-03   -0.80373E-03 19016   0.336E-01    0.755E-01
DAV:   9    -0.504604663342E+03    0.45560E-03   -0.21450E-03 23552   0.193E-01    0.671E-01
DAV:  10    -0.504603706480E+03    0.95686E-03   -0.37394E-03 23640   0.195E-01    0.454E-01
DAV:  11    -0.504603553073E+03    0.15341E-03   -0.42706E-03 23280   0.186E-01    0.335E-01
DAV:  12    -0.504603662474E+03   -0.10940E-03   -0.87920E-04 21376   0.111E-01    0.285E-01
DAV:  13    -0.504603851551E+03   -0.18908E-03   -0.54698E-04 24296   0.868E-02    0.200E-01
DAV:  14    -0.504604157965E+03   -0.30641E-03   -0.49302E-04 23024   0.752E-02    0.150E-01
DAV:  15    -0.504604256280E+03   -0.98315E-04   -0.18743E-04 21504   0.487E-02    0.140E-01
DAV:  16    -0.504604227225E+03    0.29055E-04   -0.63540E-05 16224   0.403E-02    0.104E-01
DAV:  17    -0.504604221661E+03    0.55641E-05   -0.14165E-04 13136   0.553E-02    0.780E-02
DAV:  18    -0.504604244966E+03   -0.23305E-04   -0.20581E-04 23104   0.337E-02    0.788E-02
DAV:  19    -0.504604237348E+03    0.76181E-05   -0.25853E-05 10688   0.256E-02
  18 F= -.50460424E+03 E0= -.50461099E+03  d E =-.157363E+00  mag=   112.4954
 curvature: -20.22 expect dE=-0.451E+01 dE for cont linesearch -0.159E-01
 ZBRENT: bracketing found
 ZBRENT: interpolating
 opt :   1.1790  next Energy=  -504.611832 (dE=-0.165E+00)
 bond charge predicted
       N       E                     dE             d eps       ncg     rms          rms(c)
DAV:   1    -0.504413444527E+03    0.19080E+00   -0.10736E+02 16385   0.924E+00    0.187E+00
DAV:   2    -0.504587388447E+03   -0.17394E+00   -0.15749E+00 19956   0.228E+00    0.184E+00
DAV:   3    -0.504650076786E+03   -0.62688E-01   -0.30152E-01 26680   0.270E+00    0.340E+00
DAV:   4    -0.504595373433E+03    0.54703E-01   -0.17276E-01 27320   0.195E+00    0.121E+00
DAV:   5    -0.504603568035E+03   -0.81946E-02   -0.13542E-02 26744   0.593E-01    0.899E-01
DAV:   6    -0.504608551816E+03   -0.49838E-02   -0.12733E-02 23830   0.606E-01    0.447E-01
DAV:   7    -0.504608500550E+03    0.51267E-04   -0.31486E-03 22144   0.260E-01    0.241E-01
DAV:   8    -0.504608497942E+03    0.26079E-05   -0.59037E-04 23408   0.808E-02    0.222E-01
DAV:   9    -0.504608496728E+03    0.12139E-05   -0.24434E-04 17752   0.544E-02    0.199E-01
DAV:  10    -0.504608417376E+03    0.79352E-04   -0.62543E-04 23864   0.859E-02    0.109E-01
DAV:  11    -0.504608430415E+03   -0.13039E-04   -0.21169E-04 20704   0.407E-02    0.879E-02
DAV:  12    -0.504608444153E+03   -0.13739E-04   -0.33284E-05 13632   0.263E-02    0.752E-02
DAV:  13    -0.504608480263E+03   -0.36110E-04   -0.52869E-05 16056   0.224E-02    0.478E-02
DAV:  14    -0.504608504908E+03   -0.24645E-04   -0.30967E-05 11552   0.166E-02    0.429E-02
DAV:  15    -0.504608509915E+03   -0.50070E-05   -0.11801E-05  8600   0.125E-02
  19 F= -.50460851E+03 E0= -.50461515E+03  d E =-.161635E+00  mag=   112.4692
 curvature:  -9.65 expect dE=-0.203E+01 dE for cont linesearch -0.107E-02
 trial: gam= 0.26877 g(F)=  0.211E+00 g(S)=  0.000E+00 ort = 0.244E-01 (trialstep = 0.260E+00)
 search vector abs. value=  0.610E+00
 bond charge predicted
       N       E                     dE             d eps       ncg     rms          rms(c)
DAV:   1    -0.504600701600E+03    0.78033E-02   -0.13141E+01 15313   0.366E+00    0.934E-01
DAV:   2    -0.504659600766E+03   -0.58899E-01   -0.54722E-01 20772   0.119E+00    0.982E-01
DAV:   3    -0.504673295930E+03   -0.13695E-01   -0.79463E-02 25784   0.142E+00    0.168E+00
DAV:   4    -0.504659218811E+03    0.14077E-01   -0.39151E-02 27240   0.931E-01    0.525E-01
DAV:   5    -0.504661636593E+03   -0.24178E-02   -0.31142E-03 25024   0.267E-01    0.448E-01
DAV:   6    -0.504662983480E+03   -0.13469E-02   -0.35004E-03 24664   0.349E-01    0.357E-01
DAV:   7    -0.504662601481E+03    0.38200E-03   -0.10665E-03 22872   0.170E-01    0.163E-01
DAV:   8    -0.504662546168E+03    0.55312E-04   -0.26550E-04 22880   0.639E-02    0.118E-01
DAV:   9    -0.504662541660E+03    0.45084E-05   -0.11099E-04 16256   0.392E-02    0.102E-01
DAV:  10    -0.504662516736E+03    0.24924E-04   -0.16354E-04 22544   0.368E-02    0.582E-02
DAV:  11    -0.504662521009E+03   -0.42727E-05   -0.38130E-05 14520   0.226E-02
  20 F= -.50466252E+03 E0= -.50466931E+03  d E =-.540111E-01  mag=   112.4948
 ZBRENT: can't locate minimum, use default step
 trial-energy change:   -0.054011  1 .order   -0.054128   -0.056557   -0.051700
 step:   1.0415(harm=  3.0320)  dis= 0.10175  next Energy=  -504.937802 (dE=-0.329E+00)
 bond charge predicted
       N       E                     dE             d eps       ncg     rms          rms(c)
DAV:   1    -0.504496188356E+03    0.16633E+00   -0.13136E+02 15432   0.119E+01    0.265E+00
DAV:   2    -0.504755475156E+03   -0.25929E+00   -0.22721E+00 19666   0.317E+00    0.267E+00
DAV:   3    -0.504862341921E+03   -0.10687E+00   -0.57534E-01 25224   0.381E+00    0.456E+00
DAV:   4    -0.504766510303E+03    0.95832E-01   -0.30721E-01 26952   0.254E+00    0.156E+00
DAV:   5    -0.504785729049E+03   -0.19219E-01   -0.28313E-02 26080   0.786E-01    0.129E+00
DAV:   6    -0.504797853862E+03   -0.12125E-01   -0.28472E-02 25040   0.994E-01    0.115E+00
DAV:   7    -0.504793197613E+03    0.46562E-02   -0.12185E-02 23384   0.590E-01    0.465E-01
DAV:   8    -0.504793035126E+03    0.16249E-03   -0.22419E-03 23208   0.154E-01    0.368E-01
DAV:   9    -0.504792947611E+03    0.87515E-04   -0.69142E-04 17608   0.944E-02    0.313E-01
DAV:  10    -0.504792738107E+03    0.20950E-03   -0.11978E-03 22688   0.107E-01    0.185E-01
DAV:  11    -0.504792730290E+03    0.78171E-05   -0.37194E-04 22672   0.660E-02    0.157E-01
DAV:  12    -0.504792754916E+03   -0.24626E-04   -0.88957E-05 18720   0.428E-02    0.124E-01
DAV:  13    -0.504792802481E+03   -0.47565E-04   -0.11965E-04 21072   0.445E-02    0.703E-02
DAV:  14    -0.504792830861E+03   -0.28380E-04   -0.52554E-05 16456   0.249E-02    0.570E-02
DAV:  15    -0.504792833764E+03   -0.29029E-05   -0.15788E-05  9128   0.184E-02
  21 F= -.50479283E+03 E0= -.50479998E+03  d E =-.184324E+00  mag=   112.5529
 curvature:  -2.06 expect dE=-0.254E+00 dE for cont linesearch -0.594E-01
 ZBRENT: increasing intervall
 opt :   2.6038  next Energy=  -504.896953 (dE=-0.288E+00)
 bond charge predicted
       N       E                     dE             d eps       ncg     rms          rms(c)
DAV:   1    -0.503211192846E+03    0.15816E+01   -0.68519E+02 15512   0.294E+01    0.544E+00
DAV:   2    -0.504744741222E+03   -0.15335E+01   -0.13807E+01 20122   0.704E+00    0.584E+00
DAV:   3    -0.505128337028E+03   -0.38360E+00   -0.23453E+00 24672   0.808E+00    0.888E+00
DAV:   4    -0.504766416815E+03    0.36192E+00   -0.11505E+00 26712   0.495E+00    0.314E+00
DAV:   5    -0.504835529458E+03   -0.69113E-01   -0.11465E-01 25472   0.152E+00    0.262E+00
DAV:   6    -0.504889335677E+03   -0.53806E-01   -0.10574E-01 24784   0.196E+00    0.237E+00
DAV:   7    -0.504875210689E+03    0.14125E-01   -0.43593E-02 23128   0.114E+00    0.106E+00
DAV:   8    -0.504873938017E+03    0.12727E-02   -0.10154E-02 23696   0.345E-01    0.758E-01
DAV:   9    -0.504873681250E+03    0.25677E-03   -0.27444E-03 20096   0.178E-01    0.681E-01
DAV:  10    -0.504872587986E+03    0.10933E-02   -0.23311E-03 22712   0.178E-01    0.498E-01
DAV:  11    -0.504871727836E+03    0.86015E-03   -0.32941E-03 22872   0.184E-01    0.320E-01
DAV:  12    -0.504871797334E+03   -0.69498E-04   -0.66648E-04 20648   0.101E-01    0.272E-01
DAV:  13    -0.504871955278E+03   -0.15794E-03   -0.38451E-04 22456   0.585E-02    0.176E-01
DAV:  14    -0.504872081299E+03   -0.12602E-03   -0.23432E-04 22520   0.531E-02    0.104E-01
DAV:  15    -0.504872110450E+03   -0.29151E-04   -0.65680E-05 17088   0.391E-02    0.971E-02
DAV:  16    -0.504872112370E+03   -0.19199E-05   -0.36423E-05 13120   0.217E-02
  22 F= -.50487211E+03 E0= -.50487957E+03  d E =-.263602E+00  mag=   112.6119
 curvature:  -3.61 expect dE=-0.438E+00 dE for cont linesearch -0.120E-01
 ZBRENT: bracketing found
 ZBRENT: interpolating
 opt :   2.2075  next Energy=  -504.881041 (dE=-0.273E+00)
 bond charge predicted
       N       E                     dE             d eps       ncg     rms          rms(c)
DAV:   1    -0.504728744670E+03    0.14337E+00   -0.30795E+01 15198   0.570E+00    0.144E+00
DAV:   2    -0.504883339331E+03   -0.15459E+00   -0.13739E+00 23026   0.216E+00    0.196E+00
DAV:   3    -0.504891429633E+03   -0.80903E-02   -0.20036E-01 24832   0.230E+00    0.221E+00
DAV:   4    -0.504871911060E+03    0.19519E-01   -0.51655E-02 25064   0.109E+00    0.860E-01
DAV:   5    -0.504875230725E+03   -0.33197E-02   -0.63020E-03 23680   0.443E-01    0.688E-01
DAV:   6    -0.504879114455E+03   -0.38837E-02   -0.58088E-03 23032   0.387E-01    0.347E-01
DAV:   7    -0.504879390989E+03   -0.27653E-03   -0.11936E-03 22872   0.160E-01    0.260E-01
DAV:   8    -0.504879261613E+03    0.12938E-03   -0.25333E-04 22960   0.792E-02    0.206E-01
DAV:   9    -0.504879150565E+03    0.11105E-03   -0.14660E-04 22080   0.505E-02    0.157E-01
DAV:  10    -0.504879051798E+03    0.98767E-04   -0.26304E-04 22344   0.491E-02    0.112E-01
DAV:  11    -0.504879011475E+03    0.40323E-04   -0.15458E-04 22368   0.397E-02    0.779E-02
DAV:  12    -0.504879011765E+03   -0.29001E-06   -0.26892E-05 11960   0.237E-02
  23 F= -.50487901E+03 E0= -.50488647E+03  d E =-.270502E+00  mag=   112.6034
 curvature:  -2.68 expect dE=-0.272E+00 dE for cont linesearch -0.248E-03
 trial: gam= 0.13978 g(F)=  0.101E+00 g(S)=  0.000E+00 ort = 0.751E-02 (trialstep = 0.650E+00)
 search vector abs. value=  0.115E+00
 bond charge predicted
       N       E                     dE             d eps       ncg     rms          rms(c)
DAV:   1    -0.504831906757E+03    0.47105E-01   -0.11225E+01 15431   0.770E+00    0.201E+00
DAV:   2    -0.504918001907E+03   -0.86095E-01   -0.71389E-01 15768   0.227E+00    0.174E+00
DAV:   3    -0.505012956053E+03   -0.94954E-01   -0.29403E-01 25672   0.285E+00    0.403E+00
DAV:   4    -0.504925513143E+03    0.87443E-01   -0.25689E-01 26128   0.240E+00    0.133E+00
DAV:   5    -0.504937556223E+03   -0.12043E-01   -0.15093E-02 26752   0.589E-01    0.107E+00
DAV:   6    -0.504942234659E+03   -0.46784E-02   -0.17631E-02 24730   0.760E-01    0.449E-01
DAV:   7    -0.504942313181E+03   -0.78522E-04   -0.41107E-03 22656   0.303E-01    0.240E-01
DAV:   8    -0.504942321929E+03   -0.87477E-05   -0.59818E-04 18368   0.769E-02    0.220E-01
DAV:   9    -0.504942275357E+03    0.46572E-04   -0.22758E-04 22872   0.505E-02    0.191E-01
DAV:  10    -0.504942110161E+03    0.16520E-03   -0.56201E-04 23840   0.821E-02    0.113E-01
DAV:  11    -0.504942107683E+03    0.24782E-05   -0.10554E-04 19736   0.351E-02    0.985E-02
DAV:  12    -0.504942120060E+03   -0.12377E-04   -0.20850E-05 11600   0.225E-02    0.781E-02
DAV:  13    -0.504942163972E+03   -0.43912E-04   -0.13459E-04 21744   0.280E-02    0.444E-02
DAV:  14    -0.504942178866E+03   -0.14894E-04   -0.20335E-05 10480   0.235E-02    0.341E-02
DAV:  15    -0.504942184563E+03   -0.56975E-05   -0.10329E-05  8592   0.102E-02
  24 F= -.50494218E+03 E0= -.50494985E+03  d E =-.631728E-01  mag=   112.6392
 ZBRENT: can't locate minimum, use default step
 trial-energy change:   -0.063173  1 .order   -0.063005   -0.066598   -0.059413
 step:   2.5992(harm=  6.0228)  dis= 0.05194  next Energy=  -505.096209 (dE=-0.217E+00)
 bond charge predicted
       N       E                     dE             d eps       ncg     rms          rms(c)
DAV:   1    -0.504039829325E+03    0.90235E+00   -0.10140E+02 15410   0.232E+01    0.645E+00
DAV:   2    -0.504927076749E+03   -0.88725E+00   -0.71499E+00 17726   0.785E+00    0.596E+00
DAV:   3    -0.505983554588E+03   -0.10565E+01   -0.31744E+00 27576   0.101E+01    0.138E+01
DAV:   4    -0.504922309901E+03    0.10612E+01   -0.23571E+00 27808   0.770E+00    0.384E+00
DAV:   5    -0.505027399383E+03   -0.10509E+00   -0.12635E-01 26696   0.169E+00    0.325E+00
DAV:   6    -0.505078035458E+03   -0.50636E-01   -0.12692E-01 24060   0.204E+00    0.140E+00
DAV:   7    -0.505089365372E+03   -0.11330E-01   -0.29502E-02 22712   0.695E-01    0.789E-01
DAV:   8    -0.505089195237E+03    0.17014E-03   -0.50983E-03 20984   0.303E-01    0.659E-01
DAV:   9    -0.505088813491E+03    0.38175E-03   -0.19345E-03 22664   0.170E-01    0.587E-01
DAV:  10    -0.505087643958E+03    0.11695E-02   -0.33386E-03 23096   0.180E-01    0.436E-01
DAV:  11    -0.505087091063E+03    0.55290E-03   -0.21581E-03 24432   0.173E-01    0.300E-01
DAV:  12    -0.505087188495E+03   -0.97432E-04   -0.54097E-04 20472   0.766E-02    0.249E-01
DAV:  13    -0.505087421187E+03   -0.23269E-03   -0.61643E-04 23568   0.825E-02    0.170E-01
DAV:  14    -0.505087603828E+03   -0.18264E-03   -0.49063E-04 23640   0.973E-02    0.118E-01
DAV:  15    -0.505087629927E+03   -0.26100E-04   -0.95249E-05 18848   0.401E-02    0.102E-01
DAV:  16    -0.505087631040E+03   -0.11130E-05   -0.21450E-05 10528   0.237E-02
  25 F= -.50508763E+03 E0= -.50509582E+03  d E =-.208619E+00  mag=   112.7190
 curvature:  -2.02 expect dE=-0.838E-01 dE for cont linesearch -0.555E-01
 ZBRENT: increasing intervall
 opt :   6.4980  next Energy=  -505.170708 (dE=-0.292E+00)
 bond charge predicted
       N       E                     dE             d eps       ncg     rms          rms(c)
DAV:   1    -0.500877851024E+03    0.42098E+01   -0.41949E+02 15551   0.472E+01    0.140E+01
DAV:   2    -0.505169761938E+03   -0.42919E+01   -0.29229E+01 20690   0.177E+01    0.159E+01
DAV:   3    -0.509022086177E+03   -0.38523E+01   -0.13481E+01 27216   0.235E+01    0.289E+01
DAV:   4    -0.504457188762E+03    0.45649E+01   -0.72086E+00 27781   0.150E+01    0.798E+00
DAV:   5    -0.504806711307E+03   -0.34952E+00   -0.57754E-01 24128   0.321E+00    0.648E+00
DAV:   6    -0.505075811911E+03   -0.26910E+00   -0.38849E-01 23320   0.333E+00    0.409E+00
DAV:   7    -0.505181300752E+03   -0.10549E+00   -0.23654E-01 25456   0.234E+00    0.251E+00
DAV:   8    -0.505180315151E+03    0.98560E-03   -0.55987E-02 23440   0.119E+00    0.186E+00
DAV:   9    -0.505174775368E+03    0.55398E-02   -0.15453E-02 21304   0.604E-01    0.142E+00
DAV:  10    -0.505170074568E+03    0.47008E-02   -0.16296E-02 26488   0.512E-01    0.107E+00
DAV:  11    -0.505166387630E+03    0.36869E-02   -0.12122E-02 20264   0.319E-01    0.805E-01
DAV:  12    -0.505164474839E+03    0.19128E-02   -0.55247E-03 24312   0.246E-01    0.627E-01
DAV:  13    -0.505163940252E+03    0.53459E-03   -0.23162E-03 23352   0.170E-01    0.525E-01
DAV:  14    -0.505164301477E+03   -0.36122E-03   -0.17202E-03 23976   0.178E-01    0.343E-01
DAV:  15    -0.505164979554E+03   -0.67808E-03   -0.12537E-03 23440   0.138E-01    0.230E-01
DAV:  16    -0.505165120181E+03   -0.14063E-03   -0.28012E-04 22032   0.670E-02    0.191E-01
DAV:  17    -0.505165200293E+03   -0.80112E-04   -0.16180E-04 23272   0.507E-02    0.144E-01
DAV:  18    -0.505165260723E+03   -0.60430E-04   -0.24523E-04 24072   0.570E-02    0.100E-01
DAV:  19    -0.505165274679E+03   -0.13956E-04   -0.71569E-05 19112   0.344E-02    0.857E-02
DAV:  20    -0.505165279960E+03   -0.52805E-05   -0.32044E-05 12112   0.260E-02
  26 F= -.50516528E+03 E0= -.50517418E+03  d E =-.286268E+00  mag=   112.7363
 curvature:  -3.02 expect dE=-0.204E+00 dE for cont linesearch -0.105E-01
 ZBRENT: bracketing found
 ZBRENT: interpolating
 opt :   5.4753  next Energy=  -505.175530 (dE=-0.297E+00)
 bond charge predicted
       N       E                     dE             d eps       ncg     rms          rms(c)
DAV:   1    -0.504891783281E+03    0.27349E+00   -0.27852E+01 15380   0.120E+01    0.320E+00
DAV:   2    -0.505105537217E+03   -0.21375E+00   -0.18398E+00 15800   0.332E+00    0.236E+00
DAV:   3    -0.505187842922E+03   -0.82306E-01   -0.20197E-01 26664   0.215E+00    0.363E+00
DAV:   4    -0.505171189208E+03    0.16654E-01   -0.39041E-01 26488   0.298E+00    0.283E+00
DAV:   5    -0.505165329389E+03    0.58598E-02   -0.15176E-01 27456   0.202E+00    0.166E+00
DAV:   6    -0.505173695497E+03   -0.83661E-02   -0.34414E-02 25000   0.103E+00    0.570E-01
DAV:   7    -0.505174906516E+03   -0.12110E-02   -0.88922E-03 21616   0.404E-01    0.404E-01
DAV:   8    -0.505174768175E+03    0.13834E-03   -0.11059E-03 19272   0.114E-01    0.354E-01
DAV:   9    -0.505174462130E+03    0.30605E-03   -0.37403E-04 24168   0.664E-02    0.288E-01
DAV:  10    -0.505174002719E+03    0.45941E-03   -0.10202E-03 23240   0.106E-01    0.189E-01
DAV:  11    -0.505173953301E+03    0.49419E-04   -0.35138E-04 22600   0.607E-02    0.156E-01
DAV:  12    -0.505173951047E+03    0.22534E-05   -0.12068E-04 22392   0.447E-02    0.119E-01
DAV:  13    -0.505173982247E+03   -0.31200E-04   -0.16255E-04 21800   0.440E-02    0.630E-02
DAV:  14    -0.505174001067E+03   -0.18820E-04   -0.33857E-05 11416   0.308E-02    0.583E-02
DAV:  15    -0.505174012045E+03   -0.10978E-04   -0.20324E-05 10336   0.134E-02    0.567E-02
DAV:  16    -0.505174008859E+03    0.31859E-05   -0.26766E-05  9440   0.297E-02
  27 F= -.50517401E+03 E0= -.50518274E+03  d E =-.294997E+00  mag=   112.7574
 curvature:  -2.95 expect dE=-0.134E+00 dE for cont linesearch -0.111E-03
 trial: gam= 0.41017 g(F)=  0.455E-01 g(S)=  0.000E+00 ort = 0.209E-02 (trialstep = 0.161E+01)
 search vector abs. value=  0.666E-01
 bond charge predicted
       N       E                     dE             d eps       ncg     rms          rms(c)
DAV:   1    -0.504798194617E+03    0.37582E+00   -0.39266E+01 15497   0.151E+01    0.411E+00
DAV:   2    -0.505125960292E+03   -0.32777E+00   -0.27884E+00 15640   0.425E+00    0.304E+00
DAV:   3    -0.505339067016E+03   -0.21311E+00   -0.51000E-01 27648   0.364E+00    0.572E+00
DAV:   4    -0.505189013299E+03    0.15005E+00   -0.68300E-01 27640   0.399E+00    0.303E+00
DAV:   5    -0.505218706544E+03   -0.29693E-01   -0.72029E-02 27048   0.125E+00    0.216E+00
DAV:   6    -0.505232181543E+03   -0.13475E-01   -0.52633E-02 24848   0.134E+00    0.696E-01
DAV:   7    -0.505234074932E+03   -0.18934E-02   -0.13025E-02 22264   0.470E-01    0.500E-01
DAV:   8    -0.505233900890E+03    0.17404E-03   -0.16340E-03 19480   0.173E-01    0.434E-01
DAV:   9    -0.505233533039E+03    0.36785E-03   -0.53333E-04 23408   0.855E-02    0.376E-01
DAV:  10    -0.505232786654E+03    0.74638E-03   -0.19115E-03 22528   0.141E-01    0.245E-01
DAV:  11    -0.505232630807E+03    0.15585E-03   -0.58406E-04 22936   0.799E-02    0.195E-01
DAV:  12    -0.505232610650E+03    0.20157E-04   -0.16755E-04 23120   0.526E-02    0.153E-01
DAV:  13    -0.505232669295E+03   -0.58644E-04   -0.20485E-04 22384   0.498E-02    0.949E-02
DAV:  14    -0.505232731706E+03   -0.62411E-04   -0.10530E-04 21088   0.375E-02    0.657E-02
DAV:  15    -0.505232735260E+03   -0.35541E-05   -0.14446E-05  9144   0.208E-02
  28 F= -.50523274E+03 E0= -.50524215E+03  d E =-.587264E-01  mag=   112.7051
 trial-energy change:   -0.058726  1 .order   -0.058080   -0.074854   -0.041307
 step:   3.2301(harm=  3.6034)  dis= 0.05682  next Energy=  -505.254039 (dE=-0.800E-01)
 bond charge predicted
       N       E                     dE             d eps       ncg     rms          rms(c)
DAV:   1    -0.504821324523E+03    0.41141E+00   -0.39245E+01 15529   0.150E+01    0.411E+00
DAV:   2    -0.505148476637E+03   -0.32715E+00   -0.28032E+00 15640   0.419E+00    0.297E+00
DAV:   3    -0.505198121628E+03   -0.49645E-01   -0.11351E-01 24280   0.146E+00    0.265E+00
DAV:   4    -0.505340271815E+03   -0.14215E+00   -0.39858E-01 28136   0.295E+00    0.493E+00
DAV:   5    -0.505281070667E+03    0.59201E-01   -0.67752E-01 27392   0.400E+00    0.310E+00
DAV:   6    -0.505255790915E+03    0.25280E-01   -0.12826E-01 27256   0.190E+00    0.727E-01
DAV:   7    -0.505259063971E+03   -0.32731E-02   -0.16978E-02 22152   0.469E-01    0.547E-01
DAV:   8    -0.505258677747E+03    0.38622E-03   -0.26342E-03 19792   0.246E-01    0.440E-01
DAV:   9    -0.505258446052E+03    0.23170E-03   -0.68980E-04 23928   0.860E-02    0.401E-01
DAV:  10    -0.505257836866E+03    0.60919E-03   -0.14756E-03 22088   0.128E-01    0.262E-01
DAV:  11    -0.505257611897E+03    0.22497E-03   -0.10464E-03 22896   0.987E-02    0.178E-01
DAV:  12    -0.505257619333E+03   -0.74353E-05   -0.18626E-04 23048   0.551E-02    0.150E-01
DAV:  13    -0.505257713333E+03   -0.94000E-04   -0.16351E-04 21800   0.468E-02    0.103E-01
DAV:  14    -0.505257755514E+03   -0.42181E-04   -0.12434E-04 20656   0.517E-02    0.617E-02
DAV:  15    -0.505257766819E+03   -0.11305E-04   -0.15861E-05  9600   0.179E-02    0.585E-02
DAV:  16    -0.505257765568E+03    0.12515E-05   -0.15036E-05  9360   0.158E-02
  29 F= -.50525777E+03 E0= -.50526783E+03  d E =-.837567E-01  mag=   112.6377
 curvature:  -2.50 expect dE=-0.288E-01 dE for cont linesearch -0.594E-03
 ZBRENT: extrapolating
 opt :   3.5277  next Energy=  -505.258358 (dE=-0.843E-01)
 bond charge predicted
       N       E                     dE             d eps       ncg     rms          rms(c)
DAV:   1    -0.505243989516E+03    0.13777E-01   -0.13282E+00 15481   0.276E+00    0.725E-01
DAV:   2    -0.505255093422E+03   -0.11104E-01   -0.91652E-02 15588   0.735E-01    0.619E-01
DAV:   3    -0.505267918663E+03   -0.12825E-01   -0.42247E-02 25672   0.102E+00    0.149E+00
DAV:   4    -0.505256227549E+03    0.11691E-01   -0.33845E-02 27384   0.880E-01    0.432E-01
DAV:   5    -0.505258419644E+03   -0.21921E-02   -0.37205E-03 26976   0.343E-01    0.415E-01
DAV:   6    -0.505258475603E+03   -0.55960E-04   -0.14598E-03 24176   0.225E-01    0.197E-01
DAV:   7    -0.505258460085E+03    0.15518E-04   -0.51978E-04 23392   0.840E-02    0.954E-02
DAV:   8    -0.505258474903E+03   -0.14818E-04   -0.11092E-04 16488   0.308E-02    0.860E-02
DAV:   9    -0.505258475797E+03   -0.89331E-06   -0.24521E-05 11592   0.234E-02
  30 F= -.50525848E+03 E0= -.50526863E+03  d E =-.844669E-01  mag=   112.6217
 curvature:  -2.49 expect dE=-0.335E-01 dE for cont linesearch -0.440E-04
 trial: gam= 0.25829 g(F)=  0.134E-01 g(S)=  0.000E+00 ort = 0.109E-02 (trialstep = 0.200E+01)
 search vector abs. value=  0.184E-01
 bond charge predicted
       N       E                     dE             d eps       ncg     rms          rms(c)
DAV:   1    -0.505123513710E+03    0.13496E+00   -0.16268E+01 15008   0.882E+00    0.251E+00
DAV:   2    -0.505243338118E+03   -0.11982E+00   -0.94154E-01 16528   0.271E+00    0.230E+00
DAV:   3    -0.505376635531E+03   -0.13330E+00   -0.47178E-01 25336   0.362E+00    0.493E+00
DAV:   4    -0.505250214906E+03    0.12642E+00   -0.35496E-01 26168   0.285E+00    0.163E+00
DAV:   5    -0.505269521016E+03   -0.19306E-01   -0.21237E-02 26456   0.705E-01    0.124E+00
DAV:   6    -0.505277620635E+03   -0.80996E-02   -0.29386E-02 24820   0.974E-01    0.725E-01
DAV:   7    -0.505276771295E+03    0.84934E-03   -0.64616E-03 22880   0.394E-01    0.377E-01
DAV:   8    -0.505276522904E+03    0.24839E-03   -0.12259E-03 23384   0.124E-01    0.296E-01
DAV:   9    -0.505276301697E+03    0.22121E-03   -0.59350E-04 18008   0.954E-02    0.246E-01
DAV:  10    -0.505275911057E+03    0.39064E-03   -0.94581E-04 22208   0.914E-02    0.159E-01
DAV:  11    -0.505275861274E+03    0.49782E-04   -0.18621E-04 23360   0.507E-02    0.136E-01
DAV:  12    -0.505275855509E+03    0.57656E-05   -0.34241E-05 12936   0.265E-02
  31 F= -.50527586E+03 E0= -.50528646E+03  d E =-.173797E-01  mag=   112.5648
 trial-energy change:   -0.017380  1 .order   -0.018289   -0.027413   -0.009166
 step:   3.0009(harm=  3.0009)  dis= 0.03464  next Energy=  -505.279068 (dE=-0.206E-01)
 bond charge predicted
       N       E                     dE             d eps       ncg     rms          rms(c)
DAV:   1    -0.505239234844E+03    0.36626E-01   -0.41029E+00 15016   0.443E+00    0.126E+00
DAV:   2    -0.505271503495E+03   -0.32269E-01   -0.23807E-01 18496   0.138E+00    0.134E+00
DAV:   3    -0.505292002057E+03   -0.20499E-01   -0.11646E-01 24080   0.180E+00    0.215E+00
DAV:   4    -0.505271306939E+03    0.20695E-01   -0.65753E-02 25768   0.123E+00    0.813E-01
DAV:   5    -0.505275919799E+03   -0.46129E-02   -0.51999E-03 25904   0.377E-01    0.611E-01
DAV:   6    -0.505278022842E+03   -0.21030E-02   -0.82661E-03 24832   0.510E-01    0.400E-01
DAV:   7    -0.505277645966E+03    0.37688E-03   -0.17562E-03 22664   0.206E-01    0.205E-01
DAV:   8    -0.505277575451E+03    0.70515E-04   -0.37475E-04 23168   0.702E-02    0.154E-01
DAV:   9    -0.505277537501E+03    0.37950E-04   -0.19367E-04 17344   0.538E-02    0.126E-01
DAV:  10    -0.505277484702E+03    0.52799E-04   -0.24485E-04 21936   0.465E-02    0.789E-02
DAV:  11    -0.505277485950E+03   -0.12481E-05   -0.27403E-05 11712   0.222E-02
  32 F= -.50527749E+03 E0= -.50528826E+03  d E =-.190102E-01  mag=   112.5361
 curvature:  -2.02 expect dE=-0.666E-02 dE for cont linesearch -0.228E-04
 trial: gam= 0.28806 g(F)=  0.330E-02 g(S)=  0.000E+00 ort =-0.457E-03 (trialstep = 0.220E+01)
 search vector abs. value=  0.457E-02
 bond charge predicted
       N       E                     dE             d eps       ncg     rms          rms(c)
DAV:   1    -0.505219080361E+03    0.58404E-01   -0.56451E+00 15864   0.565E+00    0.141E+00
DAV:   2    -0.505271895924E+03   -0.52816E-01   -0.45222E-01 15736   0.150E+00    0.126E+00
DAV:   3    -0.505317931193E+03   -0.46035E-01   -0.17588E-01 24448   0.212E+00    0.285E+00
DAV:   4    -0.505274361610E+03    0.43570E-01   -0.12491E-01 27584   0.163E+00    0.798E-01
DAV:   5    -0.505280394419E+03   -0.60328E-02   -0.78717E-03 26176   0.393E-01    0.644E-01
DAV:   6    -0.505283146571E+03   -0.27522E-02   -0.64115E-03 25584   0.487E-01    0.576E-01
DAV:   7    -0.505281838227E+03    0.13083E-02   -0.44279E-03 24160   0.357E-01    0.176E-01
DAV:   8    -0.505281904840E+03   -0.66612E-04   -0.58556E-04 19880   0.734E-02    0.168E-01
DAV:   9    -0.505281842593E+03    0.62247E-04   -0.12665E-04 19376   0.440E-02    0.138E-01
DAV:  10    -0.505281714008E+03    0.12858E-03   -0.31416E-04 23128   0.551E-02    0.827E-02
DAV:  11    -0.505281704785E+03    0.92236E-05   -0.55671E-05 16080   0.239E-02
  33 F= -.50528170E+03 E0= -.50529267E+03  d E =-.421883E-02  mag=   112.5304
 trial-energy change:   -0.004219  1 .order   -0.004531   -0.006963   -0.002099
 step:   3.1468(harm=  3.1468)  dis= 0.01586  next Energy=  -505.282470 (dE=-0.498E-02)
 bond charge predicted
       N       E                     dE             d eps       ncg     rms          rms(c)
DAV:   1    -0.505270293254E+03    0.11421E-01   -0.10507E+00 15861   0.244E+00    0.612E-01
DAV:   2    -0.505280283159E+03   -0.99899E-02   -0.84675E-02 16020   0.662E-01    0.586E-01
DAV:   3    -0.505287283104E+03   -0.69999E-02   -0.30909E-02 23816   0.901E-01    0.115E+00
DAV:   4    -0.505280546364E+03    0.67367E-02   -0.19872E-02 26552   0.663E-01    0.354E-01
DAV:   5    -0.505281682325E+03   -0.11360E-02   -0.14663E-03 25504   0.173E-01    0.282E-01
DAV:   6    -0.505282197660E+03   -0.51533E-03   -0.12127E-03 25384   0.212E-01    0.259E-01
DAV:   7    -0.505281936539E+03    0.26112E-03   -0.89412E-04 23688   0.161E-01    0.937E-02
DAV:   8    -0.505281951037E+03   -0.14498E-04   -0.11367E-04 17757   0.325E-02    0.908E-02
DAV:   9    -0.505281931291E+03    0.19747E-04   -0.28439E-05 12288   0.242E-02    0.694E-02
DAV:  10    -0.505281916385E+03    0.14906E-04   -0.13853E-04 21370   0.311E-02    0.430E-02
DAV:  11    -0.505281917855E+03   -0.14707E-05   -0.13655E-05  9472   0.164E-02
  34 F= -.50528192E+03 E0= -.50529295E+03  d E =-.443191E-02  mag=   112.5244
 curvature:  -2.27 expect dE=-0.209E-02 dE for cont linesearch -0.268E-04
 ZBRENT: interpolating
 opt :   2.9613  next Energy=  -505.281939 (dE=-0.445E-02)
 bond charge predicted
       N       E                     dE             d eps       ncg     rms          rms(c)
DAV:   1    -0.505281511524E+03    0.40486E-03   -0.40165E-02 15852   0.477E-01    0.120E-01
DAV:   2    -0.505282003711E+03   -0.49219E-03   -0.34763E-03 20728   0.161E-01    0.174E-01
DAV:   3    -0.505281966843E+03    0.36869E-04   -0.11483E-03 23056   0.176E-01    0.152E-01
DAV:   4    -0.505281910793E+03    0.56050E-04   -0.24090E-04 15160   0.771E-02    0.681E-02
DAV:   5    -0.505281955641E+03   -0.44848E-04   -0.35749E-05 12280   0.400E-02    0.621E-02
DAV:   6    -0.505281970526E+03   -0.14885E-04   -0.57343E-05 17192   0.383E-02    0.203E-02
DAV:   7    -0.505281971105E+03   -0.57920E-06   -0.10729E-05  8280   0.148E-02
  35 F= -.50528197E+03 E0= -.50529299E+03  d E =-.448515E-02  mag=   112.5252
 curvature:  -1.82 expect dE=-0.156E-02 dE for cont linesearch -0.857E-05
 trial: gam= 0.20174 g(F)=  0.852E-03 g(S)=  0.000E+00 ort =-0.146E-03 (trialstep = 0.235E+01)
 search vector abs. value=  0.979E-03
 bond charge predicted
       N       E                     dE             d eps       ncg     rms          rms(c)
DAV:   1    -0.505264371910E+03    0.17599E-01   -0.15488E+00 16407   0.327E+00    0.681E-01
DAV:   2    -0.505280592177E+03   -0.16220E-01   -0.14929E-01 15808   0.828E-01    0.517E-01
DAV:   3    -0.505294565696E+03   -0.13974E-01   -0.40212E-02 27480   0.989E-01    0.150E+00
DAV:   4    -0.505281336482E+03    0.13229E-01   -0.34082E-02 28016   0.876E-01    0.379E-01
DAV:   5    -0.505283427435E+03   -0.20910E-02   -0.27379E-03 25072   0.253E-01    0.296E-01
DAV:   6    -0.505283297554E+03    0.12988E-03   -0.11862E-03 24696   0.206E-01    0.159E-01
DAV:   7    -0.505283258706E+03    0.38849E-04   -0.32999E-04 24016   0.920E-02    0.808E-02
DAV:   8    -0.505283269300E+03   -0.10594E-04   -0.80954E-05 16848   0.321E-02    0.811E-02
DAV:   9    -0.505283259890E+03    0.94098E-05   -0.21283E-05 11034   0.203E-02
  36 F= -.50528326E+03 E0= -.50529427E+03  d E =-.128878E-02  mag=   112.5493
 trial-energy change:   -0.001289  1 .order   -0.001411   -0.001934   -0.000887
 step:   4.3421(harm=  4.3421)  dis= 0.00919  next Energy=  -505.283757 (dE=-0.179E-02)
 bond charge predicted
       N       E                     dE             d eps       ncg     rms          rms(c)
DAV:   1    -0.505269789092E+03    0.13480E-01   -0.11134E+00 16433   0.278E+00    0.577E-01
DAV:   2    -0.505281390154E+03   -0.11601E-01   -0.10731E-01 15808   0.693E-01    0.432E-01
DAV:   3    -0.505290695452E+03   -0.93053E-02   -0.26093E-02 27712   0.791E-01    0.123E+00
DAV:   4    -0.505281952517E+03    0.87429E-02   -0.22209E-02 27976   0.707E-01    0.326E-01
DAV:   5    -0.505283449139E+03   -0.14966E-02   -0.17912E-03 25152   0.209E-01    0.255E-01
DAV:   6    -0.505283339704E+03    0.10943E-03   -0.83119E-04 24752   0.177E-01    0.147E-01
DAV:   7    -0.505283317013E+03    0.22692E-04   -0.24698E-04 23760   0.746E-02    0.872E-02
DAV:   8    -0.505283326166E+03   -0.91536E-05   -0.58536E-05 15808   0.263E-02
  37 F= -.50528333E+03 E0= -.50529432E+03  d E =-.135506E-02  mag=   112.5670
 curvature:  -2.58 expect dE=-0.925E-03 dE for cont linesearch -0.124E-04
 trial: gam= 0.49916 g(F)=  0.358E-03 g(S)=  0.000E+00 ort =-0.685E-04 (trialstep = 0.275E+01)
 search vector abs. value=  0.533E-03
 bond charge predicted
       N       E                     dE             d eps       ncg     rms          rms(c)
DAV:   1    -0.505271928003E+03    0.11389E-01   -0.11981E+00 16346   0.252E+00    0.522E-01
DAV:   2    -0.505282280297E+03   -0.10352E-01   -0.96055E-02 15872   0.681E-01    0.424E-01
DAV:   3    -0.505289759155E+03   -0.74789E-02   -0.24324E-02 25864   0.777E-01    0.111E+00
DAV:   4    -0.505282639174E+03    0.71200E-02   -0.20202E-02 27800   0.668E-01    0.320E-01
DAV:   5    -0.505283447278E+03   -0.80810E-03   -0.10329E-03 25616   0.140E-01    0.257E-01
DAV:   6    -0.505283832834E+03   -0.38556E-03   -0.11101E-03 25328   0.199E-01    0.196E-01
DAV:   7    -0.505283719036E+03    0.11380E-03   -0.59574E-04 23280   0.130E-01    0.786E-02
DAV:   8    -0.505283727656E+03   -0.86200E-05   -0.82551E-05 16576   0.259E-02
  38 F= -.50528373E+03 E0= -.50529475E+03  d E =-.401490E-03  mag=   112.5680
 trial-energy change:   -0.000401  1 .order   -0.000565   -0.000890   -0.000240
 step:   3.7623(harm=  3.7623)  dis= 0.00650  next Energy=  -505.283935 (dE=-0.609E-03)
 bond charge predicted
       N       E                     dE             d eps       ncg     rms          rms(c)
DAV:   1    -0.505282107838E+03    0.16112E-02   -0.16316E-01 16339   0.933E-01    0.196E-01
DAV:   2    -0.505283530195E+03   -0.14224E-02   -0.12931E-02 15702   0.258E-01    0.193E-01
DAV:   3    -0.505284201400E+03   -0.67121E-03   -0.30916E-03 24520   0.281E-01    0.362E-01
DAV:   4    -0.505283525120E+03    0.67628E-03   -0.19401E-03 21616   0.214E-01    0.129E-01
DAV:   5    -0.505283631073E+03   -0.10595E-03   -0.16167E-04 17992   0.762E-02    0.116E-01
DAV:   6    -0.505283669070E+03   -0.37997E-04   -0.12574E-04 22504   0.576E-02    0.811E-02
DAV:   7    -0.505283663528E+03    0.55414E-05   -0.38146E-05 12024   0.287E-02
  39 F= -.50528366E+03 E0= -.50529469E+03  d E =-.337362E-03  mag=   112.5677
 curvature:  -3.10 expect dE=-0.581E-03 dE for cont linesearch -0.128E-04
 ZBRENT: interpolating
 opt :   3.4074  next Energy=  -505.283672 (dE=-0.346E-03)
 bond charge predicted
       N       E                     dE             d eps       ncg     rms          rms(c)
DAV:   1    -0.505283485499E+03    0.18357E-03   -0.19969E-02 16257   0.325E-01    0.864E-02
DAV:   2    -0.505283700644E+03   -0.21515E-03   -0.16503E-03 17378   0.105E-01    0.108E-01
DAV:   3    -0.505283731688E+03   -0.31044E-04   -0.53585E-04 18992   0.121E-01    0.120E-01
DAV:   4    -0.505283672827E+03    0.58861E-04   -0.19828E-04 11528   0.734E-02    0.518E-02
DAV:   5    -0.505283688998E+03   -0.16171E-04   -0.21151E-05 11528   0.310E-02    0.416E-02
DAV:   6    -0.505283691067E+03   -0.20686E-05   -0.14200E-05  9424   0.222E-02
  40 F= -.50528369E+03 E0= -.50529472E+03  d E =-.364900E-03  mag=   112.5680
 curvature:  -2.01 expect dE=-0.350E-03 dE for cont linesearch -0.247E-06
 trial: gam= 0.24220 g(F)=  0.174E-03 g(S)=  0.000E+00 ort =-0.808E-05 (trialstep = 0.288E+01)
 search vector abs. value=  0.201E-03
 bond charge predicted
       N       E                     dE             d eps       ncg     rms          rms(c)
DAV:   1    -0.505279587460E+03    0.41015E-02   -0.43140E-01 15750   0.160E+00    0.319E-01
DAV:   2    -0.505283319840E+03   -0.37324E-02   -0.34850E-02 15560   0.421E-01    0.245E-01
DAV:   3    -0.505285927149E+03   -0.26073E-02   -0.76885E-03 27368   0.431E-01    0.643E-01
DAV:   4    -0.505283532900E+03    0.23942E-02   -0.69687E-03 27736   0.393E-01    0.199E-01
DAV:   5    -0.505283847718E+03   -0.31482E-03   -0.43956E-04 24896   0.917E-02    0.160E-01
DAV:   6    -0.505283983849E+03   -0.13613E-03   -0.39492E-04 24664   0.118E-01    0.115E-01
DAV:   7    -0.505283927443E+03    0.56406E-04   -0.23095E-04 21224   0.806E-02    0.472E-02
DAV:   8    -0.505283933186E+03   -0.57429E-05   -0.24542E-05 11328   0.162E-02
  41 F= -.50528393E+03 E0= -.50529502E+03  d E =-.242119E-03  mag=   112.5678
 trial-energy change:   -0.000242  1 .order   -0.000304   -0.000495   -0.000114
 step:   3.7442(harm=  3.7442)  dis= 0.00449  next Energy=  -505.284013 (dE=-0.322E-03)
 reached required accuracy - stopping structural energy minimisation
 PROFILE, used timers:     231
