<?xml version="1.0" encoding="ISO-8859-1"?>
<modeling>
 <generator>
  <i name="program" type="string">vasp </i>
  <i name="version" type="string">6.3.2  </i>
  <i name="subversion" type="string">27Jun22 (build Mar 15 2023 15:45:48) complex                          parallel </i>
  <i name="platform" type="string">LinuxIFC </i>
  <i name="date" type="string">2025 02 10 </i>
  <i name="time" type="string">11:01:58 </i>
 </generator>
 <incar>
  <i type="string" name="SYSTEM">ni3al</i>
  <i type="int" name="ISTART">     1</i>
  <i type="string" name="PREC">Accurate</i>
  <i type="string" name="ALGO">Normal</i>
  <i type="int" name="ISPIN">     2</i>
  <i type="int" name="IMIX">     4</i>
  <i name="AMIX">      0.05000000</i>
  <i name="BMIX">      0.00010000</i>
  <i name="AMIN">      0.01000000</i>
  <i type="int" name="ICHARG">     1</i>
  <i type="int" name="NELM">   150</i>
  <i type="int" name="IBRION">     2</i>
  <i name="EDIFF">      0.00001000</i>
  <i name="EDIFFG">     -0.02000000</i>
  <i type="int" name="NSW">   300</i>
  <i type="int" name="ISIF">     2</i>
  <i name="ENCUT">    450.00000000</i>
  <i type="string" name="LREAL">Auto</i>
  <i type="int" name="ISMEAR">     1</i>
  <i name="SIGMA">      0.15000000</i>
  <i type="int" name="LMAXMIX">     4</i>
  <i type="logical" name="LWAVE"> F  </i>
  <i type="logical" name="LCHARG"> F  </i>
  <i type="logical" name="LDIPOL"> T  </i>
  <i type="int" name="IDIPOL">     3</i>
 </incar>
 <primitive_cell>
  <structure name="primitive_cell" >
   <crystal>
    <varray name="basis" >
     <v>       8.53269958       0.00000000       0.00000000 </v>
     <v>      -0.00051933       8.49699972       0.00000000 </v>
     <v>       0.00000000       0.00000000      23.59499931 </v>
    </varray>
    <i name="volume">   1710.69280467 </i>
    <varray name="rec_basis" >
     <v>       0.11719620       0.00000716       0.00000000 </v>
     <v>       0.00000000       0.11768860       0.00000000 </v>
     <v>       0.00000000       0.00000000       0.04238186 </v>
    </varray>
   </crystal>
   <varray name="positions" >
    <v>       0.00086000       0.99993000       0.24271000 </v>
    <v>       0.16518108       0.16628776       0.30293635 </v>
    <v>       0.49952769       0.16150146       0.30051064 </v>
    <v>       0.66822000       0.00107000       0.24272000 </v>
    <v>       0.83540605       0.16719181       0.30201547 </v>
    <v>       0.00044000       0.33497000       0.24240000 </v>
    <v>       0.17003923       0.50377992       0.30438006 </v>
    <v>       0.33469000       0.33305000       0.24267000 </v>
    <v>       0.49794545       0.50692546       0.30261104 </v>
    <v>       0.83350303       0.49977551       0.30155869 </v>
    <v>       0.16980569       0.83135723       0.30448561 </v>
    <v>       0.33342000       0.66555000       0.24261000 </v>
    <v>       0.83563525       0.83323349       0.30207079 </v>
    <v>       0.00064000       0.00119000       0.00199000 </v>
    <v>       0.00169283       0.00134563       0.36016866 </v>
    <v>       0.16843000       0.16962000       0.06269000 </v>
    <v>       0.33460000       0.00297000       0.00254000 </v>
    <v>       0.33298710       0.01077992       0.36233171 </v>
    <v>       0.50463000       0.16850000       0.06120000 </v>
    <v>       0.83272000       0.16670000       0.06193000 </v>
    <v>       0.00004000       0.33467000       0.00213000 </v>
    <v>       0.00330980       0.33456125       0.35986633 </v>
    <v>       0.16757000       0.49895000       0.06268000 </v>
    <v>       0.50099000       0.49896000       0.06206000 </v>
    <v>       0.83393000       0.50234000       0.06235000 </v>
    <v>       0.00121000       0.66785000       0.00188000 </v>
    <v>       0.99397154       0.66457574       0.36058292 </v>
    <v>       0.16792000       0.83462000       0.06228000 </v>
    <v>       0.33437000       0.66664000       0.00225000 </v>
    <v>       0.50152000       0.83563000       0.06217000 </v>
    <v>       0.66753000       0.66705000       0.00175000 </v>
    <v>       0.66771955       0.66560127       0.35896199 </v>
    <v>       0.83293000       0.83584000       0.06235000 </v>
    <v>       0.00121000       0.00098000       0.12225000 </v>
    <v>       0.16700000       0.16811000       0.18239000 </v>
    <v>       0.33470000       0.00227000       0.12192000 </v>
    <v>       0.50174000       0.16716000       0.18263000 </v>
    <v>       0.83421000       0.16639000       0.18283000 </v>
    <v>       0.16964000       0.49868000       0.18209000 </v>
    <v>       0.50219000       0.50081000       0.18317000 </v>
    <v>       0.66741000       0.33395000       0.12233000 </v>
    <v>       0.83134000       0.50253000       0.18283000 </v>
    <v>       0.00132000       0.66795000       0.12253000 </v>
    <v>       0.16898000       0.83509000       0.18243000 </v>
    <v>       0.33446000       0.66703000       0.12223000 </v>
    <v>       0.49971000       0.83538000       0.18278000 </v>
    <v>       0.66698000       0.66840000       0.12259000 </v>
    <v>       0.83488000       0.83403000       0.18294000 </v>
    <v>       0.33558000       0.99863000       0.24353000 </v>
    <v>       0.66801000       0.33262000       0.24229000 </v>
    <v>       0.00448000       0.66739000       0.24217000 </v>
    <v>       0.49700961       0.83449527       0.30353281 </v>
    <v>       0.66521000       0.67351000       0.24327000 </v>
    <v>       0.66620000       0.99680000       0.00000000 </v>
    <v>       0.65741120       0.99737461       0.36440436 </v>
    <v>       0.33213000       0.33386000       0.00135000 </v>
    <v>       0.34161521       0.32741666       0.36244025 </v>
    <v>       0.67040000       0.33673000       0.00321000 </v>
    <v>       0.65913892       0.33109159       0.36693066 </v>
    <v>       0.66728000       0.99998000       0.12246000 </v>
    <v>       0.99806000       0.33495000       0.12235000 </v>
    <v>       0.33675000       0.33238000       0.12261000 </v>
    <v>       0.16980569       0.83135723       0.42000000 </v>
   </varray>
  </structure>
  <varray name="primitive_index" >
   <v type="int" >        1 </v>
   <v type="int" >        2 </v>
   <v type="int" >        3 </v>
   <v type="int" >        4 </v>
   <v type="int" >        5 </v>
   <v type="int" >        6 </v>
   <v type="int" >        7 </v>
   <v type="int" >        8 </v>
   <v type="int" >        9 </v>
   <v type="int" >       10 </v>
   <v type="int" >       11 </v>
   <v type="int" >       12 </v>
   <v type="int" >       13 </v>
   <v type="int" >       14 </v>
   <v type="int" >       15 </v>
   <v type="int" >       16 </v>
   <v type="int" >       17 </v>
   <v type="int" >       18 </v>
   <v type="int" >       19 </v>
   <v type="int" >       20 </v>
   <v type="int" >       21 </v>
   <v type="int" >       22 </v>
   <v type="int" >       23 </v>
   <v type="int" >       24 </v>
   <v type="int" >       25 </v>
   <v type="int" >       26 </v>
   <v type="int" >       27 </v>
   <v type="int" >       28 </v>
   <v type="int" >       29 </v>
   <v type="int" >       30 </v>
   <v type="int" >       31 </v>
   <v type="int" >       32 </v>
   <v type="int" >       33 </v>
   <v type="int" >       34 </v>
   <v type="int" >       35 </v>
   <v type="int" >       36 </v>
   <v type="int" >       37 </v>
   <v type="int" >       38 </v>
   <v type="int" >       39 </v>
   <v type="int" >       40 </v>
   <v type="int" >       41 </v>
   <v type="int" >       42 </v>
   <v type="int" >       43 </v>
   <v type="int" >       44 </v>
   <v type="int" >       45 </v>
   <v type="int" >       46 </v>
   <v type="int" >       47 </v>
   <v type="int" >       48 </v>
   <v type="int" >       49 </v>
   <v type="int" >       50 </v>
   <v type="int" >       51 </v>
   <v type="int" >       52 </v>
   <v type="int" >       53 </v>
   <v type="int" >       54 </v>
   <v type="int" >       55 </v>
   <v type="int" >       56 </v>
   <v type="int" >       57 </v>
   <v type="int" >       58 </v>
   <v type="int" >       59 </v>
   <v type="int" >       60 </v>
   <v type="int" >       61 </v>
   <v type="int" >       62 </v>
   <v type="int" >       63 </v>
  </varray>
 </primitive_cell>
 <kpoints>
  <generation param="Gamma">
   <v type="int" name="divisions">       4        4        1 </v>
   <v name="usershift">      0.00000000       0.00000000       0.00000000 </v>
   <v name="genvec1">      0.25000000       0.00000000       0.00000000 </v>
   <v name="genvec2">      0.00000000       0.25000000       0.00000000 </v>
   <v name="genvec3">      0.00000000       0.00000000       1.00000000 </v>
   <v name="shift">      0.00000000       0.00000000       0.00000000 </v>
  </generation>
  <varray name="kpointlist" >
   <v>       0.00000000       0.00000000       0.00000000 </v>
   <v>       0.25000000       0.00000000       0.00000000 </v>
   <v>       0.50000000       0.00000000       0.00000000 </v>
   <v>       0.00000000       0.25000000       0.00000000 </v>
   <v>       0.25000000       0.25000000       0.00000000 </v>
   <v>       0.50000000       0.25000000       0.00000000 </v>
   <v>      -0.25000000       0.25000000       0.00000000 </v>
   <v>       0.00000000       0.50000000       0.00000000 </v>
   <v>       0.25000000       0.50000000       0.00000000 </v>
   <v>       0.50000000       0.50000000       0.00000000 </v>
  </varray>
  <varray name="weights" >
   <v>       0.06250000 </v>
   <v>       0.12500000 </v>
   <v>       0.06250000 </v>
   <v>       0.12500000 </v>
   <v>       0.12500000 </v>
   <v>       0.12500000 </v>
   <v>       0.12500000 </v>
   <v>       0.06250000 </v>
   <v>       0.12500000 </v>
   <v>       0.06250000 </v>
  </varray>
 </kpoints>
 <parameters>
  <separator name="general" >
   <i type="string" name="SYSTEM">ni3al</i>
   <i type="logical" name="LCOMPAT"> F  </i>
  </separator>
  <separator name="electronic" >
   <i type="string" name="PREC">accura</i>
   <i name="ENMAX">    450.00000000</i>
   <i name="ENAUG">    519.42400000</i>
   <i name="EDIFF">      0.00001000</i>
   <i type="int" name="IALGO">    38</i>
   <i type="int" name="IWAVPR">    11</i>
   <i type="int" name="NBANDS">   371</i>
   <i type="int" name="NBANDSLOW">    -1</i>
   <i type="int" name="NBANDSHIGH">    -1</i>
   <i name="NELECT">    566.00000000</i>
   <i type="int" name="TURBO">     0</i>
   <i type="int" name="IRESTART">     0</i>
   <i type="int" name="NREBOOT">     0</i>
   <i type="int" name="NMIN">     0</i>
   <i name="EREF">      0.00000000</i>
   <separator name="electronic smearing" >
    <i type="int" name="ISMEAR">     1</i>
    <i name="SIGMA">      0.15000000</i>
    <i name="KSPACING">      0.50000000</i>
    <i type="logical" name="KGAMMA"> T  </i>
    <i type="logical" name="KBLOWUP"> T  </i>
   </separator>
   <separator name="electronic projectors" >
    <i type="logical" name="LREAL"> T  </i>
    <v name="ROPT">     -0.00025000     -0.00025000     -0.00025000</v>
    <i type="int" name="LMAXPAW">  -100</i>
    <i type="int" name="LMAXMIX">     4</i>
    <i type="logical" name="NLSPLINE"> F  </i>
   </separator>
   <separator name="electronic startup" >
    <i type="int" name="ISTART">     0</i>
    <i type="int" name="ICHARG">     1</i>
    <i type="int" name="INIWAV">     1</i>
   </separator>
   <separator name="electronic spin" >
    <i type="int" name="ISPIN">     2</i>
    <i type="logical" name="LNONCOLLINEAR"> F  </i>
    <v name="MAGMOM">      1.00000000      1.00000000      1.00000000      1.00000000      1.00000000      1.00000000      1.00000000      1.00000000      1.00000000      1.00000000      1.00000000      1.00000000      1.00000000      1.00000000      1.00000000      1.00000000      1.00000000      1.00000000      1.00000000      1.00000000
      1.00000000      1.00000000      1.00000000      1.00000000      1.00000000      1.00000000      1.00000000      1.00000000      1.00000000      1.00000000      1.00000000      1.00000000      1.00000000      1.00000000      1.00000000      1.00000000      1.00000000      1.00000000      1.00000000      1.00000000
      1.00000000      1.00000000      1.00000000      1.00000000      1.00000000      1.00000000      1.00000000      1.00000000      1.00000000      1.00000000      1.00000000      1.00000000      1.00000000      1.00000000      1.00000000      1.00000000      1.00000000      1.00000000      1.00000000      1.00000000
      1.00000000      1.00000000      1.00000000</v>
    <i name="NUPDOWN">     -1.00000000</i>
    <i type="logical" name="LSORBIT"> F  </i>
    <v name="SAXIS">      0.00000000      0.00000000      1.00000000</v>
    <i type="logical" name="LSPIRAL"> F  </i>
    <v name="QSPIRAL">      0.00000000      0.00000000      0.00000000</v>
    <i type="logical" name="LZEROZ"> F  </i>
   </separator>
   <separator name="electronic exchange-correlation" >
    <i type="logical" name="LASPH"> F  </i>
    <i type="logical" name="LMETAGGA"> F  </i>
   </separator>
   <separator name="electronic convergence" >
    <i type="int" name="NELM">   150</i>
    <i type="int" name="NELMDL">     0</i>
    <i type="int" name="NELMIN">     2</i>
    <i name="ENINI">    450.00000000</i>
    <separator name="electronic convergence detail" >
     <i type="logical" name="LDIAG"> T  </i>
     <i type="logical" name="LSUBROT"> F  </i>
     <i name="WEIMIN">      0.00100000</i>
     <i name="EBREAK">      0.00000001</i>
     <i name="DEPER">      0.30000000</i>
     <i type="int" name="NRMM">     4</i>
     <i name="TIME">      0.40000000</i>
    </separator>
   </separator>
   <separator name="electronic mixer" >
    <i name="AMIX">      0.05000000</i>
    <i name="BMIX">      0.00010000</i>
    <i name="AMIN">      0.01000000</i>
    <i name="AMIX_MAG">      0.20000000</i>
    <i name="BMIX_MAG">      0.00010000</i>
    <separator name="electronic mixer details" >
     <i type="int" name="IMIX">     4</i>
     <i type="logical" name="MIXFIRST"> F  </i>
     <i type="int" name="MAXMIX">   -45</i>
     <i name="WC">    100.00000000</i>
     <i type="int" name="INIMIX">     1</i>
     <i type="int" name="MIXPRE">     1</i>
     <i type="int" name="MREMOVE">     5</i>
    </separator>
   </separator>
   <separator name="electronic dipolcorrection" >
    <i type="logical" name="LDIPOL"> T  </i>
    <i type="logical" name="LMONO"> F  </i>
    <i type="int" name="IDIPOL">     3</i>
    <i name="EPSILON">      1.00000000</i>
    <v name="DIPOL">   -100.00000000   -100.00000000   -100.00000000</v>
    <i name="EFIELD">      0.00000000</i>
   </separator>
  </separator>
  <separator name="grids" >
   <i type="int" name="NGX">    60</i>
   <i type="int" name="NGY">    60</i>
   <i type="int" name="NGZ">   168</i>
   <i type="int" name="NGXF">   120</i>
   <i type="int" name="NGYF">   120</i>
   <i type="int" name="NGZF">   336</i>
   <i type="logical" name="ADDGRID"> F  </i>
  </separator>
  <separator name="ionic" >
   <i type="int" name="NSW">   300</i>
   <i type="int" name="IBRION">     2</i>
   <i type="int" name="MDALGO">     0</i>
   <i type="int" name="ISIF">     2</i>
   <i name="PSTRESS">      0.00000000</i>
   <i name="EDIFFG">     -0.02000000</i>
   <i type="int" name="NFREE">     1</i>
   <i name="POTIM">      0.50000000</i>
   <i name="SMASS">     -3.00000000</i>
   <i name="SCALEE">      1.00000000</i>
  </separator>
  <separator name="ionic md" >
   <i name="TEBEG">      0.00010000</i>
   <i name="TEEND">      0.00010000</i>
   <i type="int" name="NBLOCK">     1</i>
   <i type="int" name="KBLOCK">   300</i>
   <i type="int" name="NPACO">   256</i>
   <i name="APACO">     10.00000000</i>
  </separator>
  <separator name="symmetry" >
   <i type="int" name="ISYM">     2</i>
   <i name="SYMPREC">      0.00001000</i>
  </separator>
  <separator name="dos" >
   <i type="int" name="LORBIT">     0</i>
   <v name="RWIGS">     -1.00000000     -1.00000000     -1.00000000</v>
   <i type="int" name="NEDOS">   301</i>
   <i name="EMIN">     10.00000000</i>
   <i name="EMAX">    -10.00000000</i>
   <i name="EFERMI">      0.00000000</i>
  </separator>
  <separator name="writing" >
   <i type="int" name="NWRITE">     2</i>
   <i type="logical" name="LWAVE"> F  </i>
   <i type="logical" name="LDOWNSAMPLE"> F  </i>
   <i type="logical" name="LCHARG"> F  </i>
   <i type="logical" name="LPARD"> F  </i>
   <i type="logical" name="LVTOT"> F  </i>
   <i type="logical" name="LVHAR"> F  </i>
   <i type="logical" name="LELF"> F  </i>
   <i type="logical" name="LOPTICS"> F  </i>
   <v name="STM">      0.00000000      0.00000000      0.00000000      0.00000000      0.00000000      0.00000000      0.00000000</v>
  </separator>
  <separator name="performance" >
   <i type="int" name="NPAR">     1</i>
   <i type="int" name="NSIM">     4</i>
   <i type="int" name="NBLK">    -1</i>
   <i type="logical" name="LPLANE"> T  </i>
   <i type="logical" name="LSCALAPACK"> T  </i>
   <i type="logical" name="LSCAAWARE"> F  </i>
   <i type="logical" name="LSCALU"> F  </i>
   <i type="logical" name="LASYNC"> F  </i>
   <i type="logical" name="LORBITALREAL"> F  </i>
  </separator>
  <separator name="miscellaneous" >
   <i type="int" name="IDIOT">     3</i>
   <i type="int" name="PHON_NSTRUCT">    -1</i>
   <i type="logical" name="LMUSIC"> F  </i>
   <v name="POMASS">     55.84700000     51.99600000    207.20000000</v>
   <v name="DARWINR">      0.00000000      0.00000000      0.00000000</v>
   <v name="DARWINV">      1.00000000      1.00000000      1.00000000</v>
   <i type="logical" name="LCORR"> T  </i>
  </separator>
  <i type="logical" name="GGA_COMPAT"> T  </i>
  <i type="logical" name="LBERRY"> F  </i>
  <i type="int" name="ICORELEVEL">     0</i>
  <i type="logical" name="LDAU"> F  </i>
  <i type="int" name="I_CONSTRAINED_M">     0</i>
  <separator name="electronic exchange-correlation" >
   <i type="string" name="GGA">--</i>
   <i type="int" name="VOSKOWN">     0</i>
   <i type="logical" name="LHFCALC"> F  </i>
   <i type="string" name="PRECFOCK"></i>
   <i type="logical" name="LSYMGRAD"> F  </i>
   <i type="logical" name="LHFONE"> F  </i>
   <i type="logical" name="LRHFCALC"> F  </i>
   <i type="logical" name="LTHOMAS"> F  </i>
   <i type="logical" name="LMODELHF"> F  </i>
   <i type="logical" name="LFOCKACE"> F  </i>
   <i name="ENCUT4O">     -1.00000000</i>
   <i type="int" name="EXXOEP">     0</i>
   <i type="int" name="FOURORBIT">     0</i>
   <i name="AEXX">      0.00000000</i>
   <i name="HFALPHA">      0.00000000</i>
   <i name="MCALPHA">      0.00000000</i>
   <i name="ALDAX">      1.00000000</i>
   <i name="AGGAX">      1.00000000</i>
   <i name="ALDAC">      1.00000000</i>
   <i name="AGGAC">      1.00000000</i>
   <i type="int" name="NKREDX">     1</i>
   <i type="int" name="NKREDY">     1</i>
   <i type="int" name="NKREDZ">     1</i>
   <i type="logical" name="SHIFTRED"> F  </i>
   <i type="logical" name="ODDONLY"> F  </i>
   <i type="logical" name="EVENONLY"> F  </i>
   <i type="int" name="LMAXFOCK">     0</i>
   <i type="int" name="NMAXFOCKAE">     0</i>
   <i type="logical" name="LFOCKAEDFT"> F  </i>
   <i name="HFSCREEN">      0.00000000</i>
   <i name="HFSCREENC">      0.00000000</i>
   <i type="int" name="NBANDSGWLOW">     0</i>
  </separator>
  <separator name="vdW DFT" >
   <i type="logical" name="LUSE_VDW"> F  </i>
   <i name="Zab_VDW">     -0.84910000</i>
   <i name="PARAM1">      0.12340000</i>
   <i name="PARAM2">      1.00000000</i>
   <i name="PARAM3">      0.00000000</i>
  </separator>
  <separator name="model GW" >
   <i type="int" name="MODEL_GW">     0</i>
   <i name="MODEL_EPS0">     16.29231243</i>
   <i name="MODEL_ALPHA">      1.00000000</i>
  </separator>
  <separator name="linear response parameters" >
   <i type="logical" name="LEPSILON"> F  </i>
   <i type="logical" name="LRPA"> F  </i>
   <i type="logical" name="LNABLA"> F  </i>
   <i type="logical" name="LVEL"> F  </i>
   <i name="CSHIFT">      0.10000000</i>
   <i name="OMEGAMAX">     -1.00000000</i>
   <i name="DEG_THRESHOLD">      0.00200000</i>
   <i name="RTIME">     -0.10000000</i>
   <i name="WPLASMAI">      0.00000000</i>
   <v name="DFIELD">      0.00000000      0.00000000      0.00000000</v>
   <v name="WPLASMA">      0.00000000      0.00000000      0.00000000      0.00000000      0.00000000      0.00000000      0.00000000      0.00000000      0.00000000</v>
  </separator>
  <separator name="orbital magnetization" >
   <i type="logical" name="NUCIND"> F  </i>
   <v name="MAGPOS">      0.00000000      0.00000000      0.00000000</v>
   <i type="logical" name="LNICSALL"> T  </i>
   <i type="logical" name="ORBITALMAG"> F  </i>
   <i type="logical" name="LMAGBLOCH"> F  </i>
   <i type="logical" name="LCHIMAG"> F  </i>
   <i type="logical" name="LGAUGE"> T  </i>
   <i type="int" name="MAGATOM">     0</i>
   <v name="MAGDIPOL">      0.00000000      0.00000000      0.00000000</v>
   <v name="AVECCONST">      0.00000000      0.00000000      0.00000000</v>
  </separator>
  <separator name="response functions" >
   <i type="logical" name="LFINITE_TEMPERATURE"> F  </i>
   <i type="logical" name="LADDER"> F  </i>
   <i type="logical" name="LRPAFORCE"> F  </i>
   <i type="logical" name="LFXC"> F  </i>
   <i type="logical" name="LHARTREE"> T  </i>
   <i type="int" name="IBSE">     0</i>
   <v type="int" name="KPOINT">    -1     0     0     0</v>
   <i type="logical" name="LTCTC"> F  </i>
   <i type="logical" name="LTCTE"> F  </i>
   <i type="logical" name="LTETE"> F  </i>
   <i type="logical" name="LTRIPLET"> F  </i>
   <i type="logical" name="LFXCEPS"> F  </i>
   <i type="logical" name="LFXHEG"> F  </i>
   <i type="int" name="NATURALO">     2</i>
   <i type="logical" name="LHOLEGF"> F  </i>
   <i type="logical" name="L2ORDER"> F  </i>
   <i type="logical" name="LDMP1"> F  </i>
   <i type="logical" name="LMP2LT"> F  </i>
   <i type="logical" name="LSMP2LT"> F  </i>
   <i type="logical" name="LGWLF"> F  </i>
   <i name="ENCUTGW">     -2.00000000</i>
   <i name="ENCUTGWSOFT">     -2.00000000</i>
   <i name="ENCUTLF">     -1.00000000</i>
   <i type="logical" name="LESF_SPLINES"> F  </i>
   <i type="int" name="LMAXMP2">    -1</i>
   <i name="SCISSOR">      0.00000000</i>
   <i type="int" name="NOMEGA">     0</i>
   <i type="int" name="NOMEGAR">     0</i>
   <i type="int" name="NBANDSGW">    -1</i>
   <i type="int" name="NBANDSO">    -1</i>
   <i type="int" name="NBANDSV">    -1</i>
   <i type="int" name="NELMGW">     1</i>
   <i type="int" name="NELMHF">     1</i>
   <i type="int" name="DIM">     3</i>
   <i type="int" name="IESPILON">     4</i>
   <i type="int" name="ANTIRES">     0</i>
   <i name="OMEGAMAX">    -30.00000000</i>
   <i name="OMEGAMIN">    -30.00000000</i>
   <i name="OMEGATL">   -200.00000000</i>
   <i type="int" name="OMEGAGRID">     0</i>
   <i name="CSHIFT">     -0.10000000</i>
   <i type="logical" name="LSELFENERGY"> F  </i>
   <i type="logical" name="LSPECTRAL"> F  </i>
   <i type="logical" name="LSPECTRALGW"> F  </i>
   <i type="logical" name="LSINGLES"> F  </i>
   <i type="logical" name="LFERMIGW"> F  </i>
   <i type="logical" name="ODDONLYGW"> F  </i>
   <i type="logical" name="EVENONLYGW"> F  </i>
   <i type="int" name="NKREDLFX">     1</i>
   <i type="int" name="NKREDLFY">     1</i>
   <i type="int" name="NKREDLFZ">     1</i>
   <i type="int" name="MAXMEM">  2800</i>
   <i type="int" name="TELESCOPE">     0</i>
   <i type="int" name="NTAUPAR">    -1</i>
   <i type="int" name="NOMEGAPAR">    -1</i>
   <i name="DAMP_NEWTON">      0.80000001</i>
   <i name="LAMBDA">      1.00000000</i>
  </separator>
  <separator name="External order field" >
   <i name="OFIELD_KAPPA">      0.00000000</i>
   <v name="OFIELD_K">      0.00000000      0.00000000      0.00000000</v>
   <i name="OFIELD_Q6_NEAR">      0.00000000</i>
   <i name="OFIELD_Q6_FAR">      0.00000000</i>
   <i name="OFIELD_A">      0.00000000</i>
  </separator>
  <separator name="optional k-points parameters" >
   <i type="int" name="KPOINTS_OPT_MODE">     1</i>
   <i type="logical" name="LKPOINTS_OPT"> F  </i>
  </separator>
  <separator name="solvation model" >
   <i type="logical" name="LSOL"> F  </i>
  </separator>
 </parameters>
 <atominfo>
  <atoms>      63 </atoms>
  <types>       3 </types>
  <array name="atoms" >
   <dimension dim="1">ion</dimension>
   <field type="string">element</field>
   <field type="int">atomtype</field>
   <set>
    <rc><c>Fe</c><c>   1</c></rc>
    <rc><c>Fe</c><c>   1</c></rc>
    <rc><c>Fe</c><c>   1</c></rc>
    <rc><c>Fe</c><c>   1</c></rc>
    <rc><c>Fe</c><c>   1</c></rc>
    <rc><c>Fe</c><c>   1</c></rc>
    <rc><c>Fe</c><c>   1</c></rc>
    <rc><c>Fe</c><c>   1</c></rc>
    <rc><c>Fe</c><c>   1</c></rc>
    <rc><c>Fe</c><c>   1</c></rc>
    <rc><c>Fe</c><c>   1</c></rc>
    <rc><c>Fe</c><c>   1</c></rc>
    <rc><c>Fe</c><c>   1</c></rc>
    <rc><c>Fe</c><c>   1</c></rc>
    <rc><c>Fe</c><c>   1</c></rc>
    <rc><c>Fe</c><c>   1</c></rc>
    <rc><c>Fe</c><c>   1</c></rc>
    <rc><c>Fe</c><c>   1</c></rc>
    <rc><c>Fe</c><c>   1</c></rc>
    <rc><c>Fe</c><c>   1</c></rc>
    <rc><c>Fe</c><c>   1</c></rc>
    <rc><c>Fe</c><c>   1</c></rc>
    <rc><c>Fe</c><c>   1</c></rc>
    <rc><c>Fe</c><c>   1</c></rc>
    <rc><c>Fe</c><c>   1</c></rc>
    <rc><c>Fe</c><c>   1</c></rc>
    <rc><c>Fe</c><c>   1</c></rc>
    <rc><c>Fe</c><c>   1</c></rc>
    <rc><c>Fe</c><c>   1</c></rc>
    <rc><c>Fe</c><c>   1</c></rc>
    <rc><c>Fe</c><c>   1</c></rc>
    <rc><c>Fe</c><c>   1</c></rc>
    <rc><c>Fe</c><c>   1</c></rc>
    <rc><c>Fe</c><c>   1</c></rc>
    <rc><c>Fe</c><c>   1</c></rc>
    <rc><c>Fe</c><c>   1</c></rc>
    <rc><c>Fe</c><c>   1</c></rc>
    <rc><c>Fe</c><c>   1</c></rc>
    <rc><c>Fe</c><c>   1</c></rc>
    <rc><c>Fe</c><c>   1</c></rc>
    <rc><c>Fe</c><c>   1</c></rc>
    <rc><c>Fe</c><c>   1</c></rc>
    <rc><c>Fe</c><c>   1</c></rc>
    <rc><c>Fe</c><c>   1</c></rc>
    <rc><c>Fe</c><c>   1</c></rc>
    <rc><c>Fe</c><c>   1</c></rc>
    <rc><c>Fe</c><c>   1</c></rc>
    <rc><c>Fe</c><c>   1</c></rc>
    <rc><c>Cr</c><c>   2</c></rc>
    <rc><c>Cr</c><c>   2</c></rc>
    <rc><c>Cr</c><c>   2</c></rc>
    <rc><c>Cr</c><c>   2</c></rc>
    <rc><c>Cr</c><c>   2</c></rc>
    <rc><c>Cr</c><c>   2</c></rc>
    <rc><c>Cr</c><c>   2</c></rc>
    <rc><c>Cr</c><c>   2</c></rc>
    <rc><c>Cr</c><c>   2</c></rc>
    <rc><c>Cr</c><c>   2</c></rc>
    <rc><c>Cr</c><c>   2</c></rc>
    <rc><c>Cr</c><c>   2</c></rc>
    <rc><c>Cr</c><c>   2</c></rc>
    <rc><c>Cr</c><c>   2</c></rc>
    <rc><c>Pb</c><c>   3</c></rc>
   </set>
  </array>
  <array name="atomtypes" >
   <dimension dim="1">type</dimension>
   <field type="int">atomspertype</field>
   <field type="string">element</field>
   <field>mass</field>
   <field>valence</field>
   <field type="string">pseudopotential</field>
   <set>
    <rc><c>  48</c><c>Fe</c><c>     55.84700000</c><c>      8.00000000</c><c>  PAW_PBE Fe 06Sep2000                  </c></rc>
    <rc><c>  14</c><c>Cr</c><c>     51.99600000</c><c>     12.00000000</c><c>  PAW_PBE Cr_pv 02Aug2007               </c></rc>
    <rc><c>   1</c><c>Pb</c><c>    207.20000000</c><c>     14.00000000</c><c>  PAW_PBE Pb_d 06Sep2000                </c></rc>
   </set>
  </array>
 </atominfo>
 <structure name="initialpos" >
  <crystal>
   <varray name="basis" >
    <v>       8.53269958       0.00000000       0.00000000 </v>
    <v>      -0.00051933       8.49699972       0.00000000 </v>
    <v>       0.00000000       0.00000000      23.59499931 </v>
   </varray>
   <i name="volume">   1710.69280467 </i>
   <varray name="rec_basis" >
    <v>       0.11719620       0.00000716       0.00000000 </v>
    <v>       0.00000000       0.11768860       0.00000000 </v>
    <v>       0.00000000       0.00000000       0.04238186 </v>
   </varray>
  </crystal>
  <varray name="positions" >
   <v>       0.00086000       0.99993000       0.24271000 </v>
   <v>       0.16518108       0.16628776       0.30293635 </v>
   <v>       0.49952769       0.16150146       0.30051064 </v>
   <v>       0.66822000       0.00107000       0.24272000 </v>
   <v>       0.83540605       0.16719181       0.30201547 </v>
   <v>       0.00044000       0.33497000       0.24240000 </v>
   <v>       0.17003923       0.50377992       0.30438006 </v>
   <v>       0.33469000       0.33305000       0.24267000 </v>
   <v>       0.49794545       0.50692546       0.30261104 </v>
   <v>       0.83350303       0.49977551       0.30155869 </v>
   <v>       0.16980569       0.83135723       0.30448561 </v>
   <v>       0.33342000       0.66555000       0.24261000 </v>
   <v>       0.83563525       0.83323349       0.30207079 </v>
   <v>       0.00064000       0.00119000       0.00199000 </v>
   <v>       0.00169283       0.00134563       0.36016866 </v>
   <v>       0.16843000       0.16962000       0.06269000 </v>
   <v>       0.33460000       0.00297000       0.00254000 </v>
   <v>       0.33298710       0.01077992       0.36233171 </v>
   <v>       0.50463000       0.16850000       0.06120000 </v>
   <v>       0.83272000       0.16670000       0.06193000 </v>
   <v>       0.00004000       0.33467000       0.00213000 </v>
   <v>       0.00330980       0.33456125       0.35986633 </v>
   <v>       0.16757000       0.49895000       0.06268000 </v>
   <v>       0.50099000       0.49896000       0.06206000 </v>
   <v>       0.83393000       0.50234000       0.06235000 </v>
   <v>       0.00121000       0.66785000       0.00188000 </v>
   <v>       0.99397154       0.66457574       0.36058292 </v>
   <v>       0.16792000       0.83462000       0.06228000 </v>
   <v>       0.33437000       0.66664000       0.00225000 </v>
   <v>       0.50152000       0.83563000       0.06217000 </v>
   <v>       0.66753000       0.66705000       0.00175000 </v>
   <v>       0.66771955       0.66560127       0.35896199 </v>
   <v>       0.83293000       0.83584000       0.06235000 </v>
   <v>       0.00121000       0.00098000       0.12225000 </v>
   <v>       0.16700000       0.16811000       0.18239000 </v>
   <v>       0.33470000       0.00227000       0.12192000 </v>
   <v>       0.50174000       0.16716000       0.18263000 </v>
   <v>       0.83421000       0.16639000       0.18283000 </v>
   <v>       0.16964000       0.49868000       0.18209000 </v>
   <v>       0.50219000       0.50081000       0.18317000 </v>
   <v>       0.66741000       0.33395000       0.12233000 </v>
   <v>       0.83134000       0.50253000       0.18283000 </v>
   <v>       0.00132000       0.66795000       0.12253000 </v>
   <v>       0.16898000       0.83509000       0.18243000 </v>
   <v>       0.33446000       0.66703000       0.12223000 </v>
   <v>       0.49971000       0.83538000       0.18278000 </v>
   <v>       0.66698000       0.66840000       0.12259000 </v>
   <v>       0.83488000       0.83403000       0.18294000 </v>
   <v>       0.33558000       0.99863000       0.24353000 </v>
   <v>       0.66801000       0.33262000       0.24229000 </v>
   <v>       0.00448000       0.66739000       0.24217000 </v>
   <v>       0.49700961       0.83449527       0.30353281 </v>
   <v>       0.66521000       0.67351000       0.24327000 </v>
   <v>       0.66620000       0.99680000       0.00000000 </v>
   <v>       0.65741120       0.99737461       0.36440436 </v>
   <v>       0.33213000       0.33386000       0.00135000 </v>
   <v>       0.34161521       0.32741666       0.36244025 </v>
   <v>       0.67040000       0.33673000       0.00321000 </v>
   <v>       0.65913892       0.33109159       0.36693066 </v>
   <v>       0.66728000       0.99998000       0.12246000 </v>
   <v>       0.99806000       0.33495000       0.12235000 </v>
   <v>       0.33675000       0.33238000       0.12261000 </v>
   <v>       0.16980569       0.83135723       0.42000000 </v>
  </varray>
  <varray name="selective"  type="logical" >
   <v type="logical" >  F  F  F </v>
   <v type="logical" >  T  T  T </v>
   <v type="logical" >  T  T  T </v>
   <v type="logical" >  F  F  F </v>
   <v type="logical" >  T  T  T </v>
   <v type="logical" >  F  F  F </v>
   <v type="logical" >  T  T  T </v>
   <v type="logical" >  F  F  F </v>
   <v type="logical" >  T  T  T </v>
   <v type="logical" >  T  T  T </v>
   <v type="logical" >  T  T  T </v>
   <v type="logical" >  F  F  F </v>
   <v type="logical" >  T  T  T </v>
   <v type="logical" >  F  F  F </v>
   <v type="logical" >  T  T  T </v>
   <v type="logical" >  F  F  F </v>
   <v type="logical" >  F  F  F </v>
   <v type="logical" >  T  T  T </v>
   <v type="logical" >  F  F  F </v>
   <v type="logical" >  F  F  F </v>
   <v type="logical" >  F  F  F </v>
   <v type="logical" >  T  T  T </v>
   <v type="logical" >  F  F  F </v>
   <v type="logical" >  F  F  F </v>
   <v type="logical" >  F  F  F </v>
   <v type="logical" >  F  F  F </v>
   <v type="logical" >  T  T  T </v>
   <v type="logical" >  F  F  F </v>
   <v type="logical" >  F  F  F </v>
   <v type="logical" >  F  F  F </v>
   <v type="logical" >  F  F  F </v>
   <v type="logical" >  T  T  T </v>
   <v type="logical" >  F  F  F </v>
   <v type="logical" >  F  F  F </v>
   <v type="logical" >  F  F  F </v>
   <v type="logical" >  F  F  F </v>
   <v type="logical" >  F  F  F </v>
   <v type="logical" >  F  F  F </v>
   <v type="logical" >  F  F  F </v>
   <v type="logical" >  F  F  F </v>
   <v type="logical" >  F  F  F </v>
   <v type="logical" >  F  F  F </v>
   <v type="logical" >  F  F  F </v>
   <v type="logical" >  F  F  F </v>
   <v type="logical" >  F  F  F </v>
   <v type="logical" >  F  F  F </v>
   <v type="logical" >  F  F  F </v>
   <v type="logical" >  F  F  F </v>
   <v type="logical" >  F  F  F </v>
   <v type="logical" >  F  F  F </v>
   <v type="logical" >  F  F  F </v>
   <v type="logical" >  T  T  T </v>
   <v type="logical" >  F  F  F </v>
   <v type="logical" >  F  F  F </v>
   <v type="logical" >  T  T  T </v>
   <v type="logical" >  F  F  F </v>
   <v type="logical" >  T  T  T </v>
   <v type="logical" >  F  F  F </v>
   <v type="logical" >  T  T  T </v>
   <v type="logical" >  F  F  F </v>
   <v type="logical" >  F  F  F </v>
   <v type="logical" >  F  F  F </v>
   <v type="logical" >  T  T  T </v>
  </varray>
  <nose>
   <v>      -3.00000000       0.00000000       0.00010000       0.00010000 </v>
  </nose>
 </structure>
 <calculation>
  <scstep>
   <time name="dav">  125.34   18.24</time>
   <time name="total">  147.86   24.11</time>
   <dipole>
    <v name="dipole">      0.00000000       0.00000000      -0.00007059 </v>
    <i name="Tr[quadrupol]">  -6925.02738283 </i>
    <i name="Echarged">      0.00000000 </i>
    <i name="Edipol_quadrupol">      0.00000000 </i>
    <i name="Eion">      0.00000000 </i>
   </dipole>
   <energy>
    <i name="alphaZ">   1814.29791331 </i>
    <i name="ewald"> 209275.70447121 </i>
    <i name="hartreedc">-260455.59717448 </i>
    <i name="XCdc">    995.23927914 </i>
    <i name="pawpsdc">  46365.14764523 </i>
    <i name="pawaedc"> -47395.88140329 </i>
    <i name="eentropy">      0.00433319 </i>
    <i name="bandstr">   1758.83848788 </i>
    <i name="atom">  53259.27193834 </i>
    <i name="e_fr_energy">   5617.02549052 </i>
    <i name="e_wo_entrp">   5617.02115733 </i>
    <i name="e_0_energy">   5617.02404612 </i>
   </energy>
  </scstep>
  <scstep>
   <time name="dav">  119.31   17.17</time>
   <time name="total">  119.38   17.18</time>
   <dipole>
    <v name="dipole">      0.00000000       0.00000000      -0.00007059 </v>
    <i name="Tr[quadrupol]">  -6925.02738283 </i>
    <i name="Echarged">      0.00000000 </i>
    <i name="Edipol_quadrupol">      0.00000000 </i>
    <i name="Eion">      0.00000000 </i>
   </dipole>
   <energy>
    <i name="e_fr_energy">    -62.66893471 </i>
    <i name="e_wo_entrp">    -62.66638504 </i>
    <i name="e_0_energy">    -62.66808482 </i>
   </energy>
  </scstep>
  <scstep>
   <time name="dav">  122.40   17.55</time>
   <time name="total">  122.47   17.56</time>
   <dipole>
    <v name="dipole">      0.00000000       0.00000000      -0.00007059 </v>
    <i name="Tr[quadrupol]">  -6925.02738283 </i>
    <i name="Echarged">      0.00000000 </i>
    <i name="Edipol_quadrupol">      0.00000000 </i>
    <i name="Eion">      0.00000000 </i>
   </dipole>
   <energy>
    <i name="e_fr_energy">   -521.35756613 </i>
    <i name="e_wo_entrp">   -521.35258612 </i>
    <i name="e_0_energy">   -521.35590613 </i>
   </energy>
  </scstep>
  <scstep>
   <time name="dav">  185.28   26.70</time>
   <time name="total">  185.30   26.71</time>
   <dipole>
    <v name="dipole">      0.00000000       0.00000000      -0.00007059 </v>
    <i name="Tr[quadrupol]">  -6925.02738283 </i>
    <i name="Echarged">      0.00000000 </i>
    <i name="Edipol_quadrupol">      0.00000000 </i>
    <i name="Eion">      0.00000000 </i>
   </dipole>
   <energy>
    <i name="e_fr_energy">   -579.96563599 </i>
    <i name="e_wo_entrp">   -579.97210703 </i>
    <i name="e_0_energy">   -579.96779300 </i>
   </energy>
  </scstep>
  <scstep>
   <time name="dav">  174.99   25.21</time>
   <time name="total">  179.35   26.17</time>
   <dipole>
    <v name="dipole">      0.00000000       0.00000000      -0.00007059 </v>
    <i name="Tr[quadrupol]">  -6925.02738283 </i>
    <i name="Echarged">      0.00000000 </i>
    <i name="Edipol_quadrupol">      0.00000000 </i>
    <i name="Eion">      0.00000000 </i>
   </dipole>
   <energy>
    <i name="e_fr_energy">   -583.20670142 </i>
    <i name="e_wo_entrp">   -583.21716761 </i>
    <i name="e_0_energy">   -583.21019015 </i>
   </energy>
  </scstep>
  <scstep>
   <time name="dav">  191.16   27.49</time>
   <time name="total">  217.81   34.24</time>
   <dipole>
    <v name="dipole">      0.00000000       0.00000000       1.96649747 </v>
    <i name="Tr[quadrupol]">  -6947.20381715 </i>
    <i name="Echarged">      0.00000000 </i>
    <i name="Edipol_quadrupol">      0.00000000 </i>
    <i name="Eion">      0.00000000 </i>
   </dipole>
   <energy>
    <i name="e_fr_energy">   -751.08367319 </i>
    <i name="e_wo_entrp">   -751.07845787 </i>
    <i name="e_0_energy">   -751.08193475 </i>
   </energy>
  </scstep>
  <scstep>
   <time name="dav">  194.40   27.96</time>
   <time name="total">  220.43   34.68</time>
   <dipole>
    <v name="dipole">      0.00000000       0.00000000      -1.59119013 </v>
    <i name="Tr[quadrupol]">  -6938.90650728 </i>
    <i name="Echarged">      0.00000000 </i>
    <i name="Edipol_quadrupol">      0.00000000 </i>
    <i name="Eion">      0.00000000 </i>
   </dipole>
   <energy>
    <i name="e_fr_energy">   -691.41321431 </i>
    <i name="e_wo_entrp">   -691.42131734 </i>
    <i name="e_0_energy">   -691.41591532 </i>
   </energy>
  </scstep>
  <scstep>
   <time name="dav">  190.67   27.65</time>
   <time name="total">  216.46   34.36</time>
   <dipole>
    <v name="dipole">      0.00000000       0.00000000       0.51505448 </v>
    <i name="Tr[quadrupol]">  -6934.31236990 </i>
    <i name="Echarged">      0.00000000 </i>
    <i name="Edipol_quadrupol">      0.00000000 </i>
    <i name="Eion">      0.00000000 </i>
   </dipole>
   <energy>
    <i name="e_fr_energy">   -548.48483554 </i>
    <i name="e_wo_entrp">   -548.46419184 </i>
    <i name="e_0_energy">   -548.47795431 </i>
   </energy>
  </scstep>
  <scstep>
   <time name="dav">  180.24   26.00</time>
   <time name="total">  206.09   32.68</time>
   <dipole>
    <v name="dipole">      0.00000000       0.00000000       0.02618081 </v>
    <i name="Tr[quadrupol]">  -6932.89796155 </i>
    <i name="Echarged">      0.00000000 </i>
    <i name="Edipol_quadrupol">      0.00000000 </i>
    <i name="Eion">      0.00000000 </i>
   </dipole>
   <energy>
    <i name="e_fr_energy">   -531.58836928 </i>
    <i name="e_wo_entrp">   -531.60526829 </i>
    <i name="e_0_energy">   -531.59400229 </i>
   </energy>
  </scstep>
  <scstep>
   <time name="dav">  173.90   25.09</time>
   <time name="total">  199.53   31.78</time>
   <dipole>
    <v name="dipole">      0.00000000       0.00000000       0.19341248 </v>
    <i name="Tr[quadrupol]">  -6933.44661788 </i>
    <i name="Echarged">      0.00000000 </i>
    <i name="Edipol_quadrupol">      0.00000000 </i>
    <i name="Eion">      0.00000000 </i>
   </dipole>
   <energy>
    <i name="e_fr_energy">   -517.84723183 </i>
    <i name="e_wo_entrp">   -517.83511094 </i>
    <i name="e_0_energy">   -517.84319154 </i>
   </energy>
  </scstep>
  <scstep>
   <time name="dav">  162.44   23.38</time>
   <time name="total">  188.27   30.09</time>
   <dipole>
    <v name="dipole">      0.00000000       0.00000000       0.01343712 </v>
    <i name="Tr[quadrupol]">  -6940.58208451 </i>
    <i name="Echarged">      0.00000000 </i>
    <i name="Edipol_quadrupol">      0.00000000 </i>
    <i name="Eion">      0.00000000 </i>
   </dipole>
   <energy>
    <i name="e_fr_energy">   -497.13011771 </i>
    <i name="e_wo_entrp">   -497.14427874 </i>
    <i name="e_0_energy">   -497.13483805 </i>
   </energy>
  </scstep>
  <scstep>
   <time name="dav">  152.51   22.31</time>
   <time name="total">  178.36   29.02</time>
   <dipole>
    <v name="dipole">      0.00000000       0.00000000       0.04391246 </v>
    <i name="Tr[quadrupol]">  -6946.63213496 </i>
    <i name="Echarged">      0.00000000 </i>
    <i name="Edipol_quadrupol">      0.00000000 </i>
    <i name="Eion">      0.00000000 </i>
   </dipole>
   <energy>
    <i name="e_fr_energy">   -492.65635845 </i>
    <i name="e_wo_entrp">   -492.69992235 </i>
    <i name="e_0_energy">   -492.67087975 </i>
   </energy>
  </scstep>
  <scstep>
   <time name="dav">  159.74   22.95</time>
   <time name="total">  186.35   29.65</time>
   <dipole>
    <v name="dipole">      0.00000000       0.00000000       0.04688775 </v>
    <i name="Tr[quadrupol]">  -6947.62141967 </i>
    <i name="Echarged">      0.00000000 </i>
    <i name="Edipol_quadrupol">      0.00000000 </i>
    <i name="Eion">      0.00000000 </i>
   </dipole>
   <energy>
    <i name="e_fr_energy">   -492.83954031 </i>
    <i name="e_wo_entrp">   -492.87090309 </i>
    <i name="e_0_energy">   -492.84999457 </i>
   </energy>
  </scstep>
  <scstep>
   <time name="dav">  167.63   24.13</time>
   <time name="total">  194.16   30.82</time>
   <dipole>
    <v name="dipole">      0.00000000       0.00000000       0.05169179 </v>
    <i name="Tr[quadrupol]">  -6947.42885061 </i>
    <i name="Echarged">      0.00000000 </i>
    <i name="Edipol_quadrupol">      0.00000000 </i>
    <i name="Eion">      0.00000000 </i>
   </dipole>
   <energy>
    <i name="e_fr_energy">   -492.76582631 </i>
    <i name="e_wo_entrp">   -492.79611023 </i>
    <i name="e_0_energy">   -492.77592095 </i>
   </energy>
  </scstep>
  <scstep>
   <time name="dav">  189.06   27.23</time>
   <time name="total">  215.71   34.02</time>
   <dipole>
    <v name="dipole">      0.00000000       0.00000000       0.11287590 </v>
    <i name="Tr[quadrupol]">  -6948.27161093 </i>
    <i name="Echarged">      0.00000000 </i>
    <i name="Edipol_quadrupol">      0.00000000 </i>
    <i name="Eion">      0.00000000 </i>
   </dipole>
   <energy>
    <i name="e_fr_energy">   -493.70884788 </i>
    <i name="e_wo_entrp">   -493.73802446 </i>
    <i name="e_0_energy">   -493.71857341 </i>
   </energy>
  </scstep>
  <scstep>
   <time name="dav">  184.91   26.64</time>
   <time name="total">  211.71   33.41</time>
   <dipole>
    <v name="dipole">      0.00000000       0.00000000      -0.00594031 </v>
    <i name="Tr[quadrupol]">  -6950.78676308 </i>
    <i name="Echarged">      0.00000000 </i>
    <i name="Edipol_quadrupol">      0.00000000 </i>
    <i name="Eion">      0.00000000 </i>
   </dipole>
   <energy>
    <i name="e_fr_energy">   -495.85510694 </i>
    <i name="e_wo_entrp">   -495.85275719 </i>
    <i name="e_0_energy">   -495.85432369 </i>
   </energy>
  </scstep>
  <scstep>
   <time name="dav">  176.88   25.50</time>
   <time name="total">  203.74   32.29</time>
   <dipole>
    <v name="dipole">      0.00000000       0.00000000       0.13234047 </v>
    <i name="Tr[quadrupol]">  -6954.16185751 </i>
    <i name="Echarged">      0.00000000 </i>
    <i name="Edipol_quadrupol">      0.00000000 </i>
    <i name="Eion">      0.00000000 </i>
   </dipole>
   <energy>
    <i name="e_fr_energy">   -498.89492404 </i>
    <i name="e_wo_entrp">   -498.88775001 </i>
    <i name="e_0_energy">   -498.89253270 </i>
   </energy>
  </scstep>
  <scstep>
   <time name="dav">  180.64   26.03</time>
   <time name="total">  207.58   32.83</time>
   <dipole>
    <v name="dipole">      0.00000000       0.00000000       0.02790948 </v>
    <i name="Tr[quadrupol]">  -6955.25238708 </i>
    <i name="Echarged">      0.00000000 </i>
    <i name="Edipol_quadrupol">      0.00000000 </i>
    <i name="Eion">      0.00000000 </i>
   </dipole>
   <energy>
    <i name="e_fr_energy">   -500.72655225 </i>
    <i name="e_wo_entrp">   -500.74398966 </i>
    <i name="e_0_energy">   -500.73236472 </i>
   </energy>
  </scstep>
  <scstep>
   <time name="dav">  163.83   23.78</time>
   <time name="total">  190.58   30.50</time>
   <dipole>
    <v name="dipole">      0.00000000       0.00000000       0.06637843 </v>
    <i name="Tr[quadrupol]">  -6955.78224661 </i>
    <i name="Echarged">      0.00000000 </i>
    <i name="Edipol_quadrupol">      0.00000000 </i>
    <i name="Eion">      0.00000000 </i>
   </dipole>
   <energy>
    <i name="e_fr_energy">   -501.08493473 </i>
    <i name="e_wo_entrp">   -501.10293164 </i>
    <i name="e_0_energy">   -501.09093370 </i>
   </energy>
  </scstep>
  <scstep>
   <time name="dav">  181.72   26.48</time>
   <time name="total">  207.32   33.23</time>
   <dipole>
    <v name="dipole">      0.00000000       0.00000000       0.06344502 </v>
    <i name="Tr[quadrupol]">  -6955.77639815 </i>
    <i name="Echarged">      0.00000000 </i>
    <i name="Edipol_quadrupol">      0.00000000 </i>
    <i name="Eion">      0.00000000 </i>
   </dipole>
   <energy>
    <i name="e_fr_energy">   -501.59931940 </i>
    <i name="e_wo_entrp">   -501.62013571 </i>
    <i name="e_0_energy">   -501.60625817 </i>
   </energy>
  </scstep>
  <scstep>
   <time name="dav">  182.64   26.26</time>
   <time name="total">  208.92   33.07</time>
   <dipole>
    <v name="dipole">      0.00000000       0.00000000       0.09356849 </v>
    <i name="Tr[quadrupol]">  -6955.14740619 </i>
    <i name="Echarged">      0.00000000 </i>
    <i name="Edipol_quadrupol">      0.00000000 </i>
    <i name="Eion">      0.00000000 </i>
   </dipole>
   <energy>
    <i name="e_fr_energy">   -501.93675794 </i>
    <i name="e_wo_entrp">   -501.96678109 </i>
    <i name="e_0_energy">   -501.94676566 </i>
   </energy>
  </scstep>
  <scstep>
   <time name="dav">  180.66   26.42</time>
   <time name="total">  206.87   33.24</time>
   <dipole>
    <v name="dipole">      0.00000000       0.00000000       0.08430000 </v>
    <i name="Tr[quadrupol]">  -6954.25556804 </i>
    <i name="Echarged">      0.00000000 </i>
    <i name="Edipol_quadrupol">      0.00000000 </i>
    <i name="Eion">      0.00000000 </i>
   </dipole>
   <energy>
    <i name="e_fr_energy">   -502.25419510 </i>
    <i name="e_wo_entrp">   -502.29512273 </i>
    <i name="e_0_energy">   -502.26783764 </i>
   </energy>
  </scstep>
  <scstep>
   <time name="dav">  182.66   26.41</time>
   <time name="total">  208.91   33.22</time>
   <dipole>
    <v name="dipole">      0.00000000       0.00000000       0.10942500 </v>
    <i name="Tr[quadrupol]">  -6954.48452019 </i>
    <i name="Echarged">      0.00000000 </i>
    <i name="Edipol_quadrupol">      0.00000000 </i>
    <i name="Eion">      0.00000000 </i>
   </dipole>
   <energy>
    <i name="e_fr_energy">   -502.35458210 </i>
    <i name="e_wo_entrp">   -502.39415412 </i>
    <i name="e_0_energy">   -502.36777278 </i>
   </energy>
  </scstep>
  <scstep>
   <time name="dav">  172.98   24.88</time>
   <time name="total">  199.27   31.66</time>
   <dipole>
    <v name="dipole">      0.00000000       0.00000000       0.10721770 </v>
    <i name="Tr[quadrupol]">  -6954.67729520 </i>
    <i name="Echarged">      0.00000000 </i>
    <i name="Edipol_quadrupol">      0.00000000 </i>
    <i name="Eion">      0.00000000 </i>
   </dipole>
   <energy>
    <i name="e_fr_energy">   -502.44480801 </i>
    <i name="e_wo_entrp">   -502.48416229 </i>
    <i name="e_0_energy">   -502.45792610 </i>
   </energy>
  </scstep>
  <scstep>
   <time name="dav">  187.07   27.16</time>
   <time name="total">  213.58   33.96</time>
   <dipole>
    <v name="dipole">      0.00000000       0.00000000       0.11199252 </v>
    <i name="Tr[quadrupol]">  -6954.93435467 </i>
    <i name="Echarged">      0.00000000 </i>
    <i name="Edipol_quadrupol">      0.00000000 </i>
    <i name="Eion">      0.00000000 </i>
   </dipole>
   <energy>
    <i name="e_fr_energy">   -502.75239960 </i>
    <i name="e_wo_entrp">   -502.78749940 </i>
    <i name="e_0_energy">   -502.76409953 </i>
   </energy>
  </scstep>
  <scstep>
   <time name="dav">  184.88   26.79</time>
   <time name="total">  212.07   33.65</time>
   <dipole>
    <v name="dipole">      0.00000000       0.00000000       0.09413583 </v>
    <i name="Tr[quadrupol]">  -6954.82550122 </i>
    <i name="Echarged">      0.00000000 </i>
    <i name="Edipol_quadrupol">      0.00000000 </i>
    <i name="Eion">      0.00000000 </i>
   </dipole>
   <energy>
    <i name="e_fr_energy">   -503.20003036 </i>
    <i name="e_wo_entrp">   -503.22666018 </i>
    <i name="e_0_energy">   -503.20890697 </i>
   </energy>
  </scstep>
  <scstep>
   <time name="dav">  178.33   25.64</time>
   <time name="total">  205.84   32.46</time>
   <dipole>
    <v name="dipole">      0.00000000       0.00000000       0.07029785 </v>
    <i name="Tr[quadrupol]">  -6954.83752683 </i>
    <i name="Echarged">      0.00000000 </i>
    <i name="Edipol_quadrupol">      0.00000000 </i>
    <i name="Eion">      0.00000000 </i>
   </dipole>
   <energy>
    <i name="e_fr_energy">   -503.35482531 </i>
    <i name="e_wo_entrp">   -503.37418184 </i>
    <i name="e_0_energy">   -503.36127749 </i>
   </energy>
  </scstep>
  <scstep>
   <time name="dav">  180.57   25.97</time>
   <time name="total">  207.28   32.88</time>
   <dipole>
    <v name="dipole">      0.00000000       0.00000000       0.06952467 </v>
    <i name="Tr[quadrupol]">  -6955.11188522 </i>
    <i name="Echarged">      0.00000000 </i>
    <i name="Edipol_quadrupol">      0.00000000 </i>
    <i name="Eion">      0.00000000 </i>
   </dipole>
   <energy>
    <i name="e_fr_energy">   -503.40536647 </i>
    <i name="e_wo_entrp">   -503.42515307 </i>
    <i name="e_0_energy">   -503.41196201 </i>
   </energy>
  </scstep>
  <scstep>
   <time name="dav">  178.90   26.00</time>
   <time name="total">  206.45   32.87</time>
   <dipole>
    <v name="dipole">      0.00000000       0.00000000       0.07789336 </v>
    <i name="Tr[quadrupol]">  -6955.17665410 </i>
    <i name="Echarged">      0.00000000 </i>
    <i name="Edipol_quadrupol">      0.00000000 </i>
    <i name="Eion">      0.00000000 </i>
   </dipole>
   <energy>
    <i name="e_fr_energy">   -503.44430255 </i>
    <i name="e_wo_entrp">   -503.46623074 </i>
    <i name="e_0_energy">   -503.45161195 </i>
   </energy>
  </scstep>
  <scstep>
   <time name="dav">  181.61   26.15</time>
   <time name="total">  209.20   33.02</time>
   <dipole>
    <v name="dipole">      0.00000000       0.00000000       0.09036255 </v>
    <i name="Tr[quadrupol]">  -6955.16277755 </i>
    <i name="Echarged">      0.00000000 </i>
    <i name="Edipol_quadrupol">      0.00000000 </i>
    <i name="Eion">      0.00000000 </i>
   </dipole>
   <energy>
    <i name="e_fr_energy">   -503.50015902 </i>
    <i name="e_wo_entrp">   -503.52267590 </i>
    <i name="e_0_energy">   -503.50766464 </i>
   </energy>
  </scstep>
  <scstep>
   <time name="dav">  174.63   25.59</time>
   <time name="total">  202.27   32.47</time>
   <dipole>
    <v name="dipole">      0.00000000       0.00000000       0.09530242 </v>
    <i name="Tr[quadrupol]">  -6955.12473317 </i>
    <i name="Echarged">      0.00000000 </i>
    <i name="Edipol_quadrupol">      0.00000000 </i>
    <i name="Eion">      0.00000000 </i>
   </dipole>
   <energy>
    <i name="e_fr_energy">   -503.55134746 </i>
    <i name="e_wo_entrp">   -503.57361181 </i>
    <i name="e_0_energy">   -503.55876891 </i>
   </energy>
  </scstep>
  <scstep>
   <time name="dav">  185.61   26.66</time>
   <time name="total">  212.90   33.51</time>
   <dipole>
    <v name="dipole">      0.00000000       0.00000000       0.09713605 </v>
    <i name="Tr[quadrupol]">  -6955.06275416 </i>
    <i name="Echarged">      0.00000000 </i>
    <i name="Edipol_quadrupol">      0.00000000 </i>
    <i name="Eion">      0.00000000 </i>
   </dipole>
   <energy>
    <i name="e_fr_energy">   -503.61026191 </i>
    <i name="e_wo_entrp">   -503.63407521 </i>
    <i name="e_0_energy">   -503.61819968 </i>
   </energy>
  </scstep>
  <scstep>
   <time name="dav">  184.14   26.53</time>
   <time name="total">  211.94   33.49</time>
   <dipole>
    <v name="dipole">      0.00000000       0.00000000       0.09677636 </v>
    <i name="Tr[quadrupol]">  -6955.10189548 </i>
    <i name="Echarged">      0.00000000 </i>
    <i name="Edipol_quadrupol">      0.00000000 </i>
    <i name="Eion">      0.00000000 </i>
   </dipole>
   <energy>
    <i name="e_fr_energy">   -503.64509224 </i>
    <i name="e_wo_entrp">   -503.66684391 </i>
    <i name="e_0_energy">   -503.65234280 </i>
   </energy>
  </scstep>
  <scstep>
   <time name="dav">  180.64   26.02</time>
   <time name="total">  208.40   32.93</time>
   <dipole>
    <v name="dipole">      0.00000000       0.00000000       0.09473419 </v>
    <i name="Tr[quadrupol]">  -6955.09858540 </i>
    <i name="Echarged">      0.00000000 </i>
    <i name="Edipol_quadrupol">      0.00000000 </i>
    <i name="Eion">      0.00000000 </i>
   </dipole>
   <energy>
    <i name="e_fr_energy">   -503.65653771 </i>
    <i name="e_wo_entrp">   -503.67728987 </i>
    <i name="e_0_energy">   -503.66345509 </i>
   </energy>
  </scstep>
  <scstep>
   <time name="dav">  185.68   26.66</time>
   <time name="total">  213.72   33.64</time>
   <dipole>
    <v name="dipole">      0.00000000       0.00000000       0.09350473 </v>
    <i name="Tr[quadrupol]">  -6955.02420997 </i>
    <i name="Echarged">      0.00000000 </i>
    <i name="Edipol_quadrupol">      0.00000000 </i>
    <i name="Eion">      0.00000000 </i>
   </dipole>
   <energy>
    <i name="e_fr_energy">   -503.65813901 </i>
    <i name="e_wo_entrp">   -503.67976956 </i>
    <i name="e_0_energy">   -503.66534920 </i>
   </energy>
  </scstep>
  <scstep>
   <time name="dav">  180.28   26.12</time>
   <time name="total">  207.16   33.03</time>
   <dipole>
    <v name="dipole">      0.00000000       0.00000000       0.09607886 </v>
    <i name="Tr[quadrupol]">  -6954.95834880 </i>
    <i name="Echarged">      0.00000000 </i>
    <i name="Edipol_quadrupol">      0.00000000 </i>
    <i name="Eion">      0.00000000 </i>
   </dipole>
   <energy>
    <i name="e_fr_energy">   -503.65793025 </i>
    <i name="e_wo_entrp">   -503.67921974 </i>
    <i name="e_0_energy">   -503.66502675 </i>
   </energy>
  </scstep>
  <scstep>
   <time name="dav">  171.83   24.70</time>
   <time name="total">  199.54   31.65</time>
   <dipole>
    <v name="dipole">      0.00000000       0.00000000       0.09715732 </v>
    <i name="Tr[quadrupol]">  -6954.95190352 </i>
    <i name="Echarged">      0.00000000 </i>
    <i name="Edipol_quadrupol">      0.00000000 </i>
    <i name="Eion">      0.00000000 </i>
   </dipole>
   <energy>
    <i name="e_fr_energy">   -503.65800033 </i>
    <i name="e_wo_entrp">   -503.67912688 </i>
    <i name="e_0_energy">   -503.66504251 </i>
   </energy>
  </scstep>
  <scstep>
   <time name="dav">  174.98   25.35</time>
   <time name="total">  202.33   32.33</time>
   <dipole>
    <v name="dipole">      0.00000000       0.00000000       0.10082682 </v>
    <i name="Tr[quadrupol]">  -6955.04248010 </i>
    <i name="Echarged">      0.00000000 </i>
    <i name="Edipol_quadrupol">      0.00000000 </i>
    <i name="Eion">      0.00000000 </i>
   </dipole>
   <energy>
    <i name="e_fr_energy">   -503.66035742 </i>
    <i name="e_wo_entrp">   -503.68205927 </i>
    <i name="e_0_energy">   -503.66759137 </i>
   </energy>
  </scstep>
  <scstep>
   <time name="dav">  174.03   25.03</time>
   <time name="total">  201.97   32.03</time>
   <dipole>
    <v name="dipole">      0.00000000       0.00000000       0.10166985 </v>
    <i name="Tr[quadrupol]">  -6955.11829484 </i>
    <i name="Echarged">      0.00000000 </i>
    <i name="Edipol_quadrupol">      0.00000000 </i>
    <i name="Eion">      0.00000000 </i>
   </dipole>
   <energy>
    <i name="e_fr_energy">   -503.66141327 </i>
    <i name="e_wo_entrp">   -503.68389993 </i>
    <i name="e_0_energy">   -503.66890882 </i>
   </energy>
  </scstep>
  <scstep>
   <time name="dav">  167.28   24.34</time>
   <time name="total">  194.35   31.36</time>
   <dipole>
    <v name="dipole">      0.00000000       0.00000000       0.10167556 </v>
    <i name="Tr[quadrupol]">  -6955.08871370 </i>
    <i name="Echarged">      0.00000000 </i>
    <i name="Edipol_quadrupol">      0.00000000 </i>
    <i name="Eion">      0.00000000 </i>
   </dipole>
   <energy>
    <i name="e_fr_energy">   -503.66150306 </i>
    <i name="e_wo_entrp">   -503.68396222 </i>
    <i name="e_0_energy">   -503.66898945 </i>
   </energy>
  </scstep>
  <scstep>
   <time name="dav">  181.88   26.19</time>
   <time name="total">  209.19   33.22</time>
   <dipole>
    <v name="dipole">      0.00000000       0.00000000       0.09923261 </v>
    <i name="Tr[quadrupol]">  -6955.04086336 </i>
    <i name="Echarged">      0.00000000 </i>
    <i name="Edipol_quadrupol">      0.00000000 </i>
    <i name="Eion">      0.00000000 </i>
   </dipole>
   <energy>
    <i name="e_fr_energy">   -503.66166384 </i>
    <i name="e_wo_entrp">   -503.68413481 </i>
    <i name="e_0_energy">   -503.66915416 </i>
   </energy>
  </scstep>
  <scstep>
   <time name="dav">  177.05   25.44</time>
   <time name="total">  205.01   32.46</time>
   <dipole>
    <v name="dipole">      0.00000000       0.00000000       0.09998368 </v>
    <i name="Tr[quadrupol]">  -6955.01707160 </i>
    <i name="Echarged">      0.00000000 </i>
    <i name="Edipol_quadrupol">      0.00000000 </i>
    <i name="Eion">      0.00000000 </i>
   </dipole>
   <energy>
    <i name="e_fr_energy">   -503.66162955 </i>
    <i name="e_wo_entrp">   -503.68430987 </i>
    <i name="e_0_energy">   -503.66918966 </i>
   </energy>
  </scstep>
  <scstep>
   <time name="dav">  180.12   25.90</time>
   <time name="total">  207.46   32.95</time>
   <dipole>
    <v name="dipole">      0.00000000       0.00000000       0.09904787 </v>
    <i name="Tr[quadrupol]">  -6954.99140215 </i>
    <i name="Echarged">      0.00000000 </i>
    <i name="Edipol_quadrupol">      0.00000000 </i>
    <i name="Eion">      0.00000000 </i>
   </dipole>
   <energy>
    <i name="e_fr_energy">   -503.66178237 </i>
    <i name="e_wo_entrp">   -503.68476545 </i>
    <i name="e_0_energy">   -503.66944339 </i>
   </energy>
  </scstep>
  <scstep>
   <time name="dav">  181.43   26.15</time>
   <time name="total">  209.64   33.23</time>
   <dipole>
    <v name="dipole">      0.00000000       0.00000000       0.09950906 </v>
    <i name="Tr[quadrupol]">  -6955.01457859 </i>
    <i name="Echarged">      0.00000000 </i>
    <i name="Edipol_quadrupol">      0.00000000 </i>
    <i name="Eion">      0.00000000 </i>
   </dipole>
   <energy>
    <i name="e_fr_energy">   -503.66213863 </i>
    <i name="e_wo_entrp">   -503.68489592 </i>
    <i name="e_0_energy">   -503.66972439 </i>
   </energy>
  </scstep>
  <scstep>
   <time name="dav">  167.34   24.10</time>
   <time name="total">  195.46   31.20</time>
   <dipole>
    <v name="dipole">      0.00000000       0.00000000       0.09901643 </v>
    <i name="Tr[quadrupol]">  -6955.01105200 </i>
    <i name="Echarged">      0.00000000 </i>
    <i name="Edipol_quadrupol">      0.00000000 </i>
    <i name="Eion">      0.00000000 </i>
   </dipole>
   <energy>
    <i name="e_fr_energy">   -503.66220663 </i>
    <i name="e_wo_entrp">   -503.68496496 </i>
    <i name="e_0_energy">   -503.66979274 </i>
   </energy>
  </scstep>
  <scstep>
   <time name="dav">  176.48   25.49</time>
   <time name="total">  204.53   32.55</time>
   <dipole>
    <v name="dipole">      0.00000000       0.00000000       0.09863881 </v>
    <i name="Tr[quadrupol]">  -6955.00655494 </i>
    <i name="Echarged">      0.00000000 </i>
    <i name="Edipol_quadrupol">      0.00000000 </i>
    <i name="Eion">      0.00000000 </i>
   </dipole>
   <energy>
    <i name="e_fr_energy">   -503.66227753 </i>
    <i name="e_wo_entrp">   -503.68509137 </i>
    <i name="e_0_energy">   -503.66988214 </i>
   </energy>
  </scstep>
  <scstep>
   <time name="dav">  175.11   25.20</time>
   <time name="total">  203.13   32.28</time>
   <dipole>
    <v name="dipole">      0.00000000       0.00000000       0.09808807 </v>
    <i name="Tr[quadrupol]">  -6955.00058748 </i>
    <i name="Echarged">      0.00000000 </i>
    <i name="Edipol_quadrupol">      0.00000000 </i>
    <i name="Eion">      0.00000000 </i>
   </dipole>
   <energy>
    <i name="e_fr_energy">   -503.66234061 </i>
    <i name="e_wo_entrp">   -503.68521567 </i>
    <i name="e_0_energy">   -503.66996563 </i>
   </energy>
  </scstep>
  <scstep>
   <time name="dav">  163.49   23.51</time>
   <time name="total">  191.55   30.60</time>
   <dipole>
    <v name="dipole">      0.00000000       0.00000000       0.09831039 </v>
    <i name="Tr[quadrupol]">  -6955.00056009 </i>
    <i name="Echarged">      0.00000000 </i>
    <i name="Edipol_quadrupol">      0.00000000 </i>
    <i name="Eion">      0.00000000 </i>
   </dipole>
   <energy>
    <i name="e_fr_energy">   -503.66235488 </i>
    <i name="e_wo_entrp">   -503.68528321 </i>
    <i name="e_0_energy">   -503.66999766 </i>
   </energy>
  </scstep>
  <scstep>
   <time name="dav">  111.20   18.40</time>
   <time name="total">  139.40   25.52</time>
   <dipole>
    <v name="dipole">      0.00000000       0.00000000       0.09831928 </v>
    <i name="Tr[quadrupol]">  -6955.00030282 </i>
    <i name="Echarged">      0.00000000 </i>
    <i name="Edipol_quadrupol">      0.00000000 </i>
    <i name="Eion">      0.00000000 </i>
   </dipole>
   <energy>
    <i name="e_fr_energy">   -503.66237077 </i>
    <i name="e_wo_entrp">   -503.68527106 </i>
    <i name="e_0_energy">   -503.67000420 </i>
   </energy>
  </scstep>
  <scstep>
   <time name="dav">  158.01   23.19</time>
   <time name="total">  186.33   30.37</time>
   <dipole>
    <v name="dipole">      0.00000000       0.00000000       0.09845279 </v>
    <i name="Tr[quadrupol]">  -6955.00339003 </i>
    <i name="Echarged">      0.00000000 </i>
    <i name="Edipol_quadrupol">      0.00000000 </i>
    <i name="Eion">      0.00000000 </i>
   </dipole>
   <energy>
    <i name="e_fr_energy">   -503.66240199 </i>
    <i name="e_wo_entrp">   -503.68523309 </i>
    <i name="e_0_energy">   -503.67001235 </i>
   </energy>
  </scstep>
  <scstep>
   <time name="dav">   50.66   13.37</time>
   <time name="total">   73.01   19.18</time>
   <dipole>
    <v name="dipole">      0.00000000       0.00000000       0.09822279 </v>
    <i name="Tr[quadrupol]">  -6955.01325948 </i>
    <i name="Echarged">      0.00000000 </i>
    <i name="Edipol_quadrupol">      0.00000000 </i>
    <i name="Eion">      0.00000000 </i>
   </dipole>
   <energy>
    <i name="alphaZ">   1814.36476911 </i>
    <i name="ewald"> 209275.70447121 </i>
    <i name="hartreedc">-260355.48350903 </i>
    <i name="XCdc">    999.11475749 </i>
    <i name="pawpsdc">  55486.89376563 </i>
    <i name="pawaedc"> -56609.94823643 </i>
    <i name="eentropy">      0.02282880 </i>
    <i name="bandstr">  -4373.60319062 </i>
    <i name="atom">  53259.27193834 </i>
    <i name="e_fr_energy">   -503.66240551 </i>
    <i name="e_wo_entrp">   -503.68523431 </i>
    <i name="e_0_energy">   -503.67001511 </i>
   </energy>
  </scstep>
  <structure>
   <crystal>
    <varray name="basis" >
     <v>       8.53269958       0.00000000       0.00000000 </v>
     <v>      -0.00051933       8.49699972       0.00000000 </v>
     <v>       0.00000000       0.00000000      23.59499931 </v>
    </varray>
    <i name="volume">   1710.69280467 </i>
    <varray name="rec_basis" >
     <v>       0.11719620       0.00000716       0.00000000 </v>
     <v>       0.00000000       0.11768860       0.00000000 </v>
     <v>       0.00000000       0.00000000       0.04238186 </v>
    </varray>
   </crystal>
   <varray name="positions" >
    <v>       0.00086000       0.99993000       0.24271000 </v>
    <v>       0.16518108       0.16628776       0.30293635 </v>
    <v>       0.49952769       0.16150146       0.30051064 </v>
    <v>       0.66822000       0.00107000       0.24272000 </v>
    <v>       0.83540605       0.16719181       0.30201547 </v>
    <v>       0.00044000       0.33497000       0.24240000 </v>
    <v>       0.17003923       0.50377992       0.30438006 </v>
    <v>       0.33469000       0.33305000       0.24267000 </v>
    <v>       0.49794545       0.50692546       0.30261104 </v>
    <v>       0.83350303       0.49977551       0.30155869 </v>
    <v>       0.16980569       0.83135723       0.30448561 </v>
    <v>       0.33342000       0.66555000       0.24261000 </v>
    <v>       0.83563525       0.83323349       0.30207079 </v>
    <v>       0.00064000       0.00119000       0.00199000 </v>
    <v>       0.00169283       0.00134563       0.36016866 </v>
    <v>       0.16843000       0.16962000       0.06269000 </v>
    <v>       0.33460000       0.00297000       0.00254000 </v>
    <v>       0.33298710       0.01077992       0.36233171 </v>
    <v>       0.50463000       0.16850000       0.06120000 </v>
    <v>       0.83272000       0.16670000       0.06193000 </v>
    <v>       0.00004000       0.33467000       0.00213000 </v>
    <v>       0.00330980       0.33456125       0.35986633 </v>
    <v>       0.16757000       0.49895000       0.06268000 </v>
    <v>       0.50099000       0.49896000       0.06206000 </v>
    <v>       0.83393000       0.50234000       0.06235000 </v>
    <v>       0.00121000       0.66785000       0.00188000 </v>
    <v>       0.99397154       0.66457574       0.36058292 </v>
    <v>       0.16792000       0.83462000       0.06228000 </v>
    <v>       0.33437000       0.66664000       0.00225000 </v>
    <v>       0.50152000       0.83563000       0.06217000 </v>
    <v>       0.66753000       0.66705000       0.00175000 </v>
    <v>       0.66771955       0.66560127       0.35896199 </v>
    <v>       0.83293000       0.83584000       0.06235000 </v>
    <v>       0.00121000       0.00098000       0.12225000 </v>
    <v>       0.16700000       0.16811000       0.18239000 </v>
    <v>       0.33470000       0.00227000       0.12192000 </v>
    <v>       0.50174000       0.16716000       0.18263000 </v>
    <v>       0.83421000       0.16639000       0.18283000 </v>
    <v>       0.16964000       0.49868000       0.18209000 </v>
    <v>       0.50219000       0.50081000       0.18317000 </v>
    <v>       0.66741000       0.33395000       0.12233000 </v>
    <v>       0.83134000       0.50253000       0.18283000 </v>
    <v>       0.00132000       0.66795000       0.12253000 </v>
    <v>       0.16898000       0.83509000       0.18243000 </v>
    <v>       0.33446000       0.66703000       0.12223000 </v>
    <v>       0.49971000       0.83538000       0.18278000 </v>
    <v>       0.66698000       0.66840000       0.12259000 </v>
    <v>       0.83488000       0.83403000       0.18294000 </v>
    <v>       0.33558000       0.99863000       0.24353000 </v>
    <v>       0.66801000       0.33262000       0.24229000 </v>
    <v>       0.00448000       0.66739000       0.24217000 </v>
    <v>       0.49700961       0.83449527       0.30353281 </v>
    <v>       0.66521000       0.67351000       0.24327000 </v>
    <v>       0.66620000       0.99680000       0.00000000 </v>
    <v>       0.65741120       0.99737461       0.36440436 </v>
    <v>       0.33213000       0.33386000       0.00135000 </v>
    <v>       0.34161521       0.32741666       0.36244025 </v>
    <v>       0.67040000       0.33673000       0.00321000 </v>
    <v>       0.65913892       0.33109159       0.36693066 </v>
    <v>       0.66728000       0.99998000       0.12246000 </v>
    <v>       0.99806000       0.33495000       0.12235000 </v>
    <v>       0.33675000       0.33238000       0.12261000 </v>
    <v>       0.16980569       0.83135723       0.42000000 </v>
   </varray>
  </structure>
  <varray name="forces" >
   <v>       0.05165504      -0.07502662      -0.13413808 </v>
   <v>       0.01362791       0.06115170      -0.04507479 </v>
   <v>       0.07127776       0.11760055      -0.02205783 </v>
   <v>       0.01698600      -0.31685691       0.03046103 </v>
   <v>      -0.05755890      -0.03044999      -0.04346874 </v>
   <v>       0.05375954       0.00314488      -0.15216966 </v>
   <v>       0.03626531       0.05517034       0.05151664 </v>
   <v>       0.00097941       0.08736523      -0.10525075 </v>
   <v>      -0.01257728      -0.03099970      -0.02617137 </v>
   <v>      -0.08229336      -0.04593921      -0.04685914 </v>
   <v>      -0.00415343       0.02593193      -0.54733263 </v>
   <v>       0.13617475       0.17026072       0.03662633 </v>
   <v>      -0.06593349      -0.00103285      -0.05649668 </v>
   <v>       0.01307736      -0.02008735       0.29711002 </v>
   <v>      -1.24185993       1.13872329      -0.91403105 </v>
   <v>      -0.32413814      -0.29178297      -0.04561080 </v>
   <v>      -0.02322972      -0.02422812       0.39801384 </v>
   <v>       1.10472630       0.97312529      -0.72513720 </v>
   <v>      -0.20294949      -0.14098530       0.54011877 </v>
   <v>       0.46894647       0.16896776       0.14261022 </v>
   <v>      -0.05795993       0.01445124       0.43651437 </v>
   <v>      -0.06983096       0.05745272       0.03888797 </v>
   <v>      -0.25884851       0.30567505      -0.05383230 </v>
   <v>       0.11109387       0.45780989       0.15674436 </v>
   <v>       0.15664683       0.11241102      -0.12181282 </v>
   <v>       0.07930853       0.01813712       0.18839195 </v>
   <v>      -0.88941382      -0.94951679      -0.55912050 </v>
   <v>      -0.04071187      -0.02452782      -0.47610270 </v>
   <v>      -0.10097711       0.02485550       0.30036383 </v>
   <v>      -0.29968006      -0.38141026      -0.01773832 </v>
   <v>      -0.00815435      -0.05280579       0.43887409 </v>
   <v>       0.02586634      -0.01645980      -0.00023621 </v>
   <v>       0.36826134      -0.38302574      -0.03284262 </v>
   <v>       0.01111458       0.13806305       0.06079570 </v>
   <v>       0.03374202      -0.00433419       0.06700935 </v>
   <v>       0.08906125       0.06992117       0.09281942 </v>
   <v>      -0.17539658      -0.05669078      -0.01087064 </v>
   <v>       0.12120685       0.07102368      -0.09239274 </v>
   <v>      -0.07411064       0.00768724       0.10055946 </v>
   <v>      -0.02007742       0.11614066       0.05024055 </v>
   <v>       0.05706237      -0.01919171       0.04702465 </v>
   <v>       0.10548416       0.08187360       0.04606329 </v>
   <v>      -0.07743618      -0.04621093      -0.04495591 </v>
   <v>      -0.02748678      -0.03613533       0.03743017 </v>
   <v>       0.14692278       0.02372216       0.04609005 </v>
   <v>      -0.05707196      -0.07705090       0.06546895 </v>
   <v>      -0.06654282      -0.06451819       0.10118682 </v>
   <v>       0.03644572      -0.08867767       0.09035291 </v>
   <v>       0.00828235       0.01470071      -0.16169729 </v>
   <v>      -0.08762874      -0.01688581       0.32892464 </v>
   <v>      -0.11296234      -0.00048044      -0.05471176 </v>
   <v>      -0.04293433       0.03907525       0.09156851 </v>
   <v>      -0.02102458       0.02549000      -0.26922057 </v>
   <v>       0.05811296       0.42845161      -0.77372757 </v>
   <v>      -0.03338031       0.04494593      -0.06054355 </v>
   <v>       0.32832133       0.01941609      -0.61317700 </v>
   <v>       0.05318780      -0.03863200      -0.00369989 </v>
   <v>      -0.33989883      -0.35920656      -0.19800664 </v>
   <v>       0.03375104      -0.00304553      -0.02155360 </v>
   <v>      -0.08655026       0.18911286      -0.26337721 </v>
   <v>      -0.10331328      -0.07695076       0.04706762 </v>
   <v>       0.16029118      -0.08742222      -0.40883340 </v>
   <v>       1.11444625      -1.30129001       2.77341645 </v>
  </varray>
  <varray name="stress" >
   <v>     -16.57372422       1.20446811       1.66924542 </v>
   <v>       1.20446869     -15.41600295      -1.61312590 </v>
   <v>       1.66924458      -1.61312717      -0.23978665 </v>
  </varray>
  <energy>
   <i name="e_fr_energy">   -503.66240551 </i>
   <i name="e_wo_entrp">   -503.68523431 </i>
   <i name="e_0_energy">   -503.67001511 </i>
  </energy>
  <time name="totalsc">10075.21 1620.26</time>
 </calculation>
 <calculation>
  <scstep>
   <time name="dav">  120.52   17.42</time>
   <time name="total">  146.34   24.17</time>
   <dipole>
    <v name="dipole">      0.00000000       0.00000000       0.09828378 </v>
    <i name="Tr[quadrupol]">  -6964.81728451 </i>
    <i name="Echarged">      0.00000000 </i>
    <i name="Edipol_quadrupol">      0.00000000 </i>
    <i name="Eion">      0.00000000 </i>
   </dipole>
   <energy>
    <i name="alphaZ">   1815.18334638 </i>
    <i name="ewald"> 208955.58796032 </i>
    <i name="hartreedc">-260040.17054199 </i>
    <i name="XCdc">    998.99820967 </i>
    <i name="pawpsdc">  55488.20767975 </i>
    <i name="pawaedc"> -56611.29246457 </i>
    <i name="eentropy">      0.02089196 </i>
    <i name="bandstr">  -4369.07664655 </i>
    <i name="atom">  53259.27193834 </i>
    <i name="e_fr_energy">   -503.26962667 </i>
    <i name="e_wo_entrp">   -503.29051863 </i>
    <i name="e_0_energy">   -503.27659066 </i>
   </energy>
  </scstep>
  <scstep>
   <time name="dav">  170.42   24.52</time>
   <time name="total">  197.18   31.27</time>
   <dipole>
    <v name="dipole">      0.00000000       0.00000000      -0.04676809 </v>
    <i name="Tr[quadrupol]">  -6965.11489831 </i>
    <i name="Echarged">      0.00000000 </i>
    <i name="Edipol_quadrupol">      0.00000000 </i>
    <i name="Eion">      0.00000000 </i>
   </dipole>
   <energy>
    <i name="e_fr_energy">   -504.30942861 </i>
    <i name="e_wo_entrp">   -504.33265222 </i>
    <i name="e_0_energy">   -504.31716981 </i>
   </energy>
  </scstep>
  <scstep>
   <time name="dav">  185.68   26.71</time>
   <time name="total">  212.04   33.40</time>
   <dipole>
    <v name="dipole">      0.00000000       0.00000000       0.25857841 </v>
    <i name="Tr[quadrupol]">  -6965.31353507 </i>
    <i name="Echarged">      0.00000000 </i>
    <i name="Edipol_quadrupol">      0.00000000 </i>
    <i name="Eion">      0.00000000 </i>
   </dipole>
   <energy>
    <i name="e_fr_energy">   -505.03765352 </i>
    <i name="e_wo_entrp">   -505.06302771 </i>
    <i name="e_0_energy">   -505.04611158 </i>
   </energy>
  </scstep>
  <scstep>
   <time name="dav">  191.82   27.60</time>
   <time name="total">  218.20   34.37</time>
   <dipole>
    <v name="dipole">      0.00000000       0.00000000       0.08709716 </v>
    <i name="Tr[quadrupol]">  -6964.71344412 </i>
    <i name="Echarged">      0.00000000 </i>
    <i name="Edipol_quadrupol">      0.00000000 </i>
    <i name="Eion">      0.00000000 </i>
   </dipole>
   <energy>
    <i name="e_fr_energy">   -503.96601806 </i>
    <i name="e_wo_entrp">   -503.98589668 </i>
    <i name="e_0_energy">   -503.97264427 </i>
   </energy>
  </scstep>
  <scstep>
   <time name="dav">  178.69   25.79</time>
   <time name="total">  205.53   32.54</time>
   <dipole>
    <v name="dipole">      0.00000000       0.00000000       0.06432412 </v>
    <i name="Tr[quadrupol]">  -6965.19844042 </i>
    <i name="Echarged">      0.00000000 </i>
    <i name="Edipol_quadrupol">      0.00000000 </i>
    <i name="Eion">      0.00000000 </i>
   </dipole>
   <energy>
    <i name="e_fr_energy">   -504.07332747 </i>
    <i name="e_wo_entrp">   -504.09203225 </i>
    <i name="e_0_energy">   -504.07956240 </i>
   </energy>
  </scstep>
  <scstep>
   <time name="dav">  172.82   24.83</time>
   <time name="total">  199.18   31.52</time>
   <dipole>
    <v name="dipole">      0.00000000       0.00000000       0.08386141 </v>
    <i name="Tr[quadrupol]">  -6964.90277776 </i>
    <i name="Echarged">      0.00000000 </i>
    <i name="Edipol_quadrupol">      0.00000000 </i>
    <i name="Eion">      0.00000000 </i>
   </dipole>
   <energy>
    <i name="e_fr_energy">   -504.15694587 </i>
    <i name="e_wo_entrp">   -504.17707043 </i>
    <i name="e_0_energy">   -504.16365405 </i>
   </energy>
  </scstep>
  <scstep>
   <time name="dav">  172.05   24.71</time>
   <time name="total">  197.78   31.36</time>
   <dipole>
    <v name="dipole">      0.00000000       0.00000000       0.08704256 </v>
    <i name="Tr[quadrupol]">  -6965.07508809 </i>
    <i name="Echarged">      0.00000000 </i>
    <i name="Edipol_quadrupol">      0.00000000 </i>
    <i name="Eion">      0.00000000 </i>
   </dipole>
   <energy>
    <i name="e_fr_energy">   -504.17356220 </i>
    <i name="e_wo_entrp">   -504.19349647 </i>
    <i name="e_0_energy">   -504.18020696 </i>
   </energy>
  </scstep>
  <scstep>
   <time name="dav">  159.72   23.29</time>
   <time name="total">  185.43   29.96</time>
   <dipole>
    <v name="dipole">      0.00000000       0.00000000       0.08638574 </v>
    <i name="Tr[quadrupol]">  -6965.03564806 </i>
    <i name="Echarged">      0.00000000 </i>
    <i name="Edipol_quadrupol">      0.00000000 </i>
    <i name="Eion">      0.00000000 </i>
   </dipole>
   <energy>
    <i name="e_fr_energy">   -504.17161249 </i>
    <i name="e_wo_entrp">   -504.19189657 </i>
    <i name="e_0_energy">   -504.17837385 </i>
   </energy>
  </scstep>
  <scstep>
   <time name="dav">  170.07   24.60</time>
   <time name="total">  196.93   31.36</time>
   <dipole>
    <v name="dipole">      0.00000000       0.00000000       0.08488449 </v>
    <i name="Tr[quadrupol]">  -6965.02954045 </i>
    <i name="Echarged">      0.00000000 </i>
    <i name="Edipol_quadrupol">      0.00000000 </i>
    <i name="Eion">      0.00000000 </i>
   </dipole>
   <energy>
    <i name="e_fr_energy">   -504.16928946 </i>
    <i name="e_wo_entrp">   -504.18908361 </i>
    <i name="e_0_energy">   -504.17588751 </i>
   </energy>
  </scstep>
  <scstep>
   <time name="dav">  182.64   26.50</time>
   <time name="total">  208.56   33.22</time>
   <dipole>
    <v name="dipole">      0.00000000       0.00000000       0.08049869 </v>
    <i name="Tr[quadrupol]">  -6964.99841597 </i>
    <i name="Echarged">      0.00000000 </i>
    <i name="Edipol_quadrupol">      0.00000000 </i>
    <i name="Eion">      0.00000000 </i>
   </dipole>
   <energy>
    <i name="e_fr_energy">   -504.16596634 </i>
    <i name="e_wo_entrp">   -504.18552412 </i>
    <i name="e_0_energy">   -504.17248560 </i>
   </energy>
  </scstep>
  <scstep>
   <time name="dav">  163.93   23.78</time>
   <time name="total">  190.71   30.51</time>
   <dipole>
    <v name="dipole">      0.00000000       0.00000000       0.07920508 </v>
    <i name="Tr[quadrupol]">  -6965.00607233 </i>
    <i name="Echarged">      0.00000000 </i>
    <i name="Edipol_quadrupol">      0.00000000 </i>
    <i name="Eion">      0.00000000 </i>
   </dipole>
   <energy>
    <i name="e_fr_energy">   -504.16499897 </i>
[...]
       <r>   -38.8978    -0.0001    42.0000 </r>
       <r>   -38.7275    -0.0000    42.0000 </r>
       <r>   -38.5571    -0.0000    42.0000 </r>
       <r>   -38.3867     0.0000    42.0000 </r>
       <r>   -38.2163     0.0000    42.0000 </r>
       <r>   -38.0460     0.0000    42.0000 </r>
       <r>   -37.8756     0.0000    42.0000 </r>
       <r>   -37.7052     0.0000    42.0000 </r>
       <r>   -37.5348     0.0000    42.0000 </r>
       <r>   -37.3645     0.0000    42.0000 </r>
       <r>   -37.1941     0.0000    42.0000 </r>
       <r>   -37.0237     0.0000    42.0000 </r>
       <r>   -36.8534     0.0000    42.0000 </r>
       <r>   -36.6830     0.0000    42.0000 </r>
       <r>   -36.5126     0.0000    42.0000 </r>
       <r>   -36.3422     0.0000    42.0000 </r>
       <r>   -36.1719     0.0000    42.0000 </r>
       <r>   -36.0015     0.0000    42.0000 </r>
       <r>   -35.8311     0.0000    42.0000 </r>
       <r>   -35.6607     0.0000    42.0000 </r>
       <r>   -35.4904     0.0000    42.0000 </r>
       <r>   -35.3200     0.0000    42.0000 </r>
       <r>   -35.1496     0.0000    42.0000 </r>
       <r>   -34.9793     0.0000    42.0000 </r>
       <r>   -34.8089     0.0000    42.0000 </r>
       <r>   -34.6385     0.0000    42.0000 </r>
       <r>   -34.4681     0.0000    42.0000 </r>
       <r>   -34.2978     0.0000    42.0000 </r>
       <r>   -34.1274     0.0000    42.0000 </r>
       <r>   -33.9570     0.0000    42.0000 </r>
       <r>   -33.7866     0.0000    42.0000 </r>
       <r>   -33.6163     0.0000    42.0000 </r>
       <r>   -33.4459     0.0000    42.0000 </r>
       <r>   -33.2755     0.0000    42.0000 </r>
       <r>   -33.1052     0.0000    42.0000 </r>
       <r>   -32.9348     0.0000    42.0000 </r>
       <r>   -32.7644     0.0000    42.0000 </r>
       <r>   -32.5940     0.0000    42.0000 </r>
       <r>   -32.4237     0.0000    42.0000 </r>
       <r>   -32.2533     0.0000    42.0000 </r>
       <r>   -32.0829     0.0000    42.0000 </r>
       <r>   -31.9125     0.0000    42.0000 </r>
       <r>   -31.7422     0.0000    42.0000 </r>
       <r>   -31.5718     0.0000    42.0000 </r>
       <r>   -31.4014     0.0000    42.0000 </r>
       <r>   -31.2311     0.0000    42.0000 </r>
       <r>   -31.0607     0.0000    42.0000 </r>
       <r>   -30.8903     0.0000    42.0000 </r>
       <r>   -30.7199     0.0000    42.0000 </r>
       <r>   -30.5496     0.0000    42.0000 </r>
       <r>   -30.3792     0.0000    42.0000 </r>
       <r>   -30.2088     0.0000    42.0000 </r>
       <r>   -30.0384     0.0000    42.0000 </r>
       <r>   -29.8681     0.0000    42.0000 </r>
       <r>   -29.6977     0.0000    42.0000 </r>
       <r>   -29.5273     0.0000    42.0000 </r>
       <r>   -29.3570     0.0000    42.0000 </r>
       <r>   -29.1866     0.0000    42.0000 </r>
       <r>   -29.0162     0.0000    42.0000 </r>
       <r>   -28.8458     0.0000    42.0000 </r>
       <r>   -28.6755     0.0000    42.0000 </r>
       <r>   -28.5051     0.0000    42.0000 </r>
       <r>   -28.3347     0.0000    42.0000 </r>
       <r>   -28.1643     0.0000    42.0000 </r>
       <r>   -27.9940     0.0000    42.0000 </r>
       <r>   -27.8236     0.0000    42.0000 </r>
       <r>   -27.6532     0.0000    42.0000 </r>
       <r>   -27.4829     0.0000    42.0000 </r>
       <r>   -27.3125     0.0000    42.0000 </r>
       <r>   -27.1421     0.0000    42.0000 </r>
       <r>   -26.9717     0.0000    42.0000 </r>
       <r>   -26.8014     0.0000    42.0000 </r>
       <r>   -26.6310     0.0000    42.0000 </r>
       <r>   -26.4606     0.0000    42.0000 </r>
       <r>   -26.2902     0.0000    42.0000 </r>
       <r>   -26.1199     0.0000    42.0000 </r>
       <r>   -25.9495     0.0000    42.0000 </r>
       <r>   -25.7791     0.0000    42.0000 </r>
       <r>   -25.6088     0.0000    42.0000 </r>
       <r>   -25.4384     0.0000    42.0000 </r>
       <r>   -25.2680     0.0000    42.0000 </r>
       <r>   -25.0976     0.0000    42.0000 </r>
       <r>   -24.9273     0.0000    42.0000 </r>
       <r>   -24.7569     0.0000    42.0000 </r>
       <r>   -24.5865     0.0000    42.0000 </r>
       <r>   -24.4161     0.0000    42.0000 </r>
       <r>   -24.2458     0.0000    42.0000 </r>
       <r>   -24.0754     0.0000    42.0000 </r>
       <r>   -23.9050     0.0000    42.0000 </r>
       <r>   -23.7347     0.0000    42.0000 </r>
       <r>   -23.5643     0.0000    42.0000 </r>
       <r>   -23.3939     0.0000    42.0000 </r>
       <r>   -23.2235     0.0000    42.0000 </r>
       <r>   -23.0532     0.0000    42.0000 </r>
       <r>   -22.8828     0.0000    42.0000 </r>
       <r>   -22.7124     0.0000    42.0000 </r>
       <r>   -22.5420     0.0000    42.0000 </r>
       <r>   -22.3717     0.0000    42.0000 </r>
       <r>   -22.2013     0.0000    42.0000 </r>
       <r>   -22.0309     0.0000    42.0000 </r>
       <r>   -21.8606     0.0000    42.0000 </r>
       <r>   -21.6902     0.0000    42.0000 </r>
       <r>   -21.5198     0.0000    42.0000 </r>
       <r>   -21.3494     0.0000    42.0000 </r>
       <r>   -21.1791     0.0000    42.0000 </r>
       <r>   -21.0087     0.0000    42.0000 </r>
       <r>   -20.8383     0.0000    42.0000 </r>
       <r>   -20.6679     0.0000    42.0000 </r>
       <r>   -20.4976     0.0000    42.0000 </r>
       <r>   -20.3272     0.0000    42.0000 </r>
       <r>   -20.1568     0.0000    42.0000 </r>
       <r>   -19.9865     0.0000    42.0000 </r>
       <r>   -19.8161     0.0000    42.0000 </r>
       <r>   -19.6457     0.0000    42.0000 </r>
       <r>   -19.4753     0.0000    42.0000 </r>
       <r>   -19.3050     0.0000    42.0000 </r>
       <r>   -19.1346     0.0000    42.0000 </r>
       <r>   -18.9642     0.0000    42.0000 </r>
       <r>   -18.7938     0.0000    42.0000 </r>
       <r>   -18.6235     0.0000    42.0000 </r>
       <r>   -18.4531     0.0000    42.0000 </r>
       <r>   -18.2827     0.0000    42.0000 </r>
       <r>   -18.1124     0.0000    42.0000 </r>
       <r>   -17.9420     0.0000    42.0000 </r>
       <r>   -17.7716     0.0000    42.0000 </r>
       <r>   -17.6012     0.0000    42.0000 </r>
       <r>   -17.4309     0.0000    42.0000 </r>
       <r>   -17.2605     0.0000    42.0000 </r>
       <r>   -17.0901     0.0000    42.0000 </r>
       <r>   -16.9197     0.0000    42.0000 </r>
       <r>   -16.7494    -0.0000    42.0000 </r>
       <r>   -16.5790    -0.0000    42.0000 </r>
       <r>   -16.4086    -0.0000    42.0000 </r>
       <r>   -16.2383    -0.0000    42.0000 </r>
       <r>   -16.0679    -0.0000    42.0000 </r>
       <r>   -15.8975    -0.0005    41.9999 </r>
       <r>   -15.7271    -0.1222    41.9791 </r>
       <r>   -15.5568    -0.6797    41.8633 </r>
       <r>   -15.3864    17.0019    44.7600 </r>
       <r>   -15.2160    14.1119    47.1642 </r>
       <r>   -15.0456    -0.8880    47.0130 </r>
       <r>   -14.8753    -0.0758    47.0000 </r>
       <r>   -14.7049    -0.0002    47.0000 </r>
       <r>   -14.5345    -0.0000    47.0000 </r>
       <r>   -14.3642    -0.0000    47.0000 </r>
       <r>   -14.1938     0.0000    47.0000 </r>
       <r>   -14.0234     0.0000    47.0000 </r>
       <r>   -13.8530     0.0000    47.0000 </r>
       <r>   -13.6827     0.0000    47.0000 </r>
       <r>   -13.5123     0.0000    47.0000 </r>
       <r>   -13.3419     0.0000    47.0000 </r>
       <r>   -13.1715     0.0000    47.0000 </r>
       <r>   -13.0012     0.0000    47.0000 </r>
       <r>   -12.8308     0.0000    47.0000 </r>
       <r>   -12.6604     0.0000    47.0000 </r>
       <r>   -12.4901     0.0000    47.0000 </r>
       <r>   -12.3197     0.0000    47.0000 </r>
       <r>   -12.1493     0.0000    47.0000 </r>
       <r>   -11.9789     0.0000    47.0000 </r>
       <r>   -11.8086     0.0000    47.0000 </r>
       <r>   -11.6382     0.0000    47.0000 </r>
       <r>   -11.4678     0.0000    47.0000 </r>
       <r>   -11.2974     0.0000    47.0000 </r>
       <r>   -11.1271     0.0000    47.0000 </r>
       <r>   -10.9567     0.0000    47.0000 </r>
       <r>   -10.7863     0.0000    47.0000 </r>
       <r>   -10.6160     0.0000    47.0000 </r>
       <r>   -10.4456     0.0000    47.0000 </r>
       <r>   -10.2752     0.0000    47.0000 </r>
       <r>   -10.1048     0.0000    47.0000 </r>
       <r>    -9.9345     0.0000    47.0000 </r>
       <r>    -9.7641     0.0000    47.0000 </r>
       <r>    -9.5937     0.0000    47.0000 </r>
       <r>    -9.4233     0.0000    47.0000 </r>
       <r>    -9.2530     0.0000    47.0000 </r>
       <r>    -9.0826    -0.0000    47.0000 </r>
       <r>    -8.9122    -0.0000    47.0000 </r>
       <r>    -8.7419    -0.0000    47.0000 </r>
       <r>    -8.5715    -0.0000    47.0000 </r>
       <r>    -8.4011    -0.0000    47.0000 </r>
       <r>    -8.2307    -0.0000    47.0000 </r>
       <r>    -8.0604    -0.0092    46.9984 </r>
       <r>    -7.8900    -0.1758    46.9685 </r>
       <r>    -7.7196     2.1749    47.3390 </r>
       <r>    -7.5492     3.9348    48.0094 </r>
       <r>    -7.3789    -0.0147    48.0069 </r>
       <r>    -7.2085    -0.0545    47.9976 </r>
       <r>    -7.0381     0.0324    48.0031 </r>
       <r>    -6.8678     1.0313    48.1788 </r>
       <r>    -6.6974     1.8446    48.4931 </r>
       <r>    -6.5270     0.8512    48.6381 </r>
       <r>    -6.3566     2.3555    49.0394 </r>
       <r>    -6.1863     1.6015    49.3122 </r>
       <r>    -6.0159     0.3661    49.3746 </r>
       <r>    -5.8455     2.4820    49.7975 </r>
       <r>    -5.6751     4.3696    50.5419 </r>
       <r>    -5.5048     2.5795    50.9814 </r>
       <r>    -5.3344     3.8122    51.6309 </r>
       <r>    -5.1640     2.3415    52.0298 </r>
       <r>    -4.9937     2.3499    52.4302 </r>
       <r>    -4.8233     5.7026    53.4018 </r>
       <r>    -4.6529     4.1304    54.1055 </r>
       <r>    -4.4825     3.7089    54.7373 </r>
       <r>    -4.3122     4.1426    55.4431 </r>
       <r>    -4.1418     5.0130    56.2972 </r>
       <r>    -3.9714     8.8316    57.8019 </r>
       <r>    -3.8010     6.5762    58.9223 </r>
       <r>    -3.6307     7.7541    60.2434 </r>
       <r>    -3.4603     6.1193    61.2859 </r>
       <r>    -3.2899    10.6375    63.0983 </r>
       <r>    -3.1196    14.2028    65.5180 </r>
       <r>    -2.9492    18.6231    68.6909 </r>
       <r>    -2.7788    20.9766    72.2647 </r>
       <r>    -2.6084    20.7298    75.7965 </r>
       <r>    -2.4381    21.1993    79.4083 </r>
       <r>    -2.2677    26.2487    83.8804 </r>
       <r>    -2.0973    27.5968    88.5821 </r>
       <r>    -1.9269    31.5866    93.9636 </r>
       <r>    -1.7566    34.3503    99.8160 </r>
       <r>    -1.5862    34.7005   105.7280 </r>
       <r>    -1.4158    38.8445   112.3461 </r>
       <r>    -1.2455    46.2336   120.2230 </r>
       <r>    -1.0751    49.3110   128.6242 </r>
       <r>    -0.9047    48.9958   136.9718 </r>
       <r>    -0.7343    51.9832   145.8283 </r>
       <r>    -0.5640    60.5283   156.1407 </r>
       <r>    -0.3936    63.9088   167.0290 </r>
       <r>    -0.2232    65.7577   178.2323 </r>
       <r>    -0.0528    63.2237   189.0039 </r>
       <r>     0.1175    53.5412   198.1259 </r>
       <r>     0.2879    39.1294   204.7924 </r>
       <r>     0.4583    31.5231   210.1631 </r>
       <r>     0.6286    25.2915   214.4721 </r>
       <r>     0.7990    26.9383   219.0616 </r>
       <r>     0.9694    34.2195   224.8917 </r>
       <r>     1.1398    38.5172   231.4540 </r>
       <r>     1.3101    49.1613   239.8297 </r>
       <r>     1.4805    55.1579   249.2271 </r>
       <r>     1.6509    61.9790   259.7867 </r>
       <r>     1.8213    69.8555   271.6881 </r>
       <r>     1.9916    70.4845   283.6968 </r>
       <r>     2.1620    77.0779   296.8288 </r>
       <r>     2.3324    85.8003   311.4468 </r>
       <r>     2.5027    93.8735   327.4403 </r>
       <r>     2.6731    94.5652   343.5516 </r>
       <r>     2.8435    67.7337   355.0916 </r>
       <r>     3.0139    45.8363   362.9008 </r>
       <r>     3.1842    34.8987   368.8466 </r>
       <r>     3.3546    13.4761   371.1426 </r>
       <r>     3.5250    -0.7285   371.0185 </r>
       <r>     3.6954    -0.1078   371.0001 </r>
       <r>     3.8657    -0.0005   371.0000 </r>
       <r>     4.0361    -0.0000   371.0000 </r>
       <r>     4.2065    -0.0000   371.0000 </r>
       <r>     4.3768     0.0000   371.0000 </r>
       <r>     4.5472     0.0000   371.0000 </r>
       <r>     4.7176     0.0000   371.0000 </r>
       <r>     4.8880     0.0000   371.0000 </r>
       <r>     5.0583     0.0000   371.0000 </r>
       <r>     5.2287     0.0000   371.0000 </r>
       <r>     5.3991     0.0000   371.0000 </r>
       <r>     5.5695     0.0000   371.0000 </r>
      </set>
     </set>
    </array>
   </total>
  </dos>
 </calculation>
 <structure name="finalpos" >
  <crystal>
   <varray name="basis" >
    <v>       8.53269958       0.00000000       0.00000000 </v>
    <v>      -0.00051933       8.49699972       0.00000000 </v>
    <v>       0.00000000       0.00000000      23.59499931 </v>
   </varray>
   <i name="volume">   1710.69280467 </i>
   <varray name="rec_basis" >
    <v>       0.11719620       0.00000716       0.00000000 </v>
    <v>       0.00000000       0.11768860       0.00000000 </v>
    <v>       0.00000000       0.00000000       0.04238186 </v>
   </varray>
  </crystal>
  <varray name="positions" >
   <v>       0.00086000       0.99993000       0.24271000 </v>
   <v>       0.16437447       0.16799707       0.30311398 </v>
   <v>       0.49939323       0.16235766       0.30056017 </v>
   <v>       0.66822000       0.00107000       0.24272000 </v>
   <v>       0.83475155       0.16734451       0.30224043 </v>
   <v>       0.00044000       0.33497000       0.24240000 </v>
   <v>       0.16842448       0.50179797       0.30397618 </v>
   <v>       0.33469000       0.33305000       0.24267000 </v>
   <v>       0.49985389       0.50530510       0.30177478 </v>
   <v>       0.83399883       0.50065338       0.30159637 </v>
   <v>       0.16876293       0.83290627       0.30441664 </v>
   <v>       0.33342000       0.66555000       0.24261000 </v>
   <v>       0.83611603       0.83268947       0.30235251 </v>
   <v>       0.00064000       0.00119000       0.00199000 </v>
   <v>       0.00106707       0.00267859       0.36022628 </v>
   <v>       0.16843000       0.16962000       0.06269000 </v>
   <v>       0.33460000       0.00297000       0.00254000 </v>
   <v>       0.33202674       0.01155532       0.36260148 </v>
   <v>       0.50463000       0.16850000       0.06120000 </v>
   <v>       0.83272000       0.16670000       0.06193000 </v>
   <v>       0.00004000       0.33467000       0.00213000 </v>
   <v>       0.00222373       0.33643840       0.36031532 </v>
   <v>       0.16757000       0.49895000       0.06268000 </v>
   <v>       0.50099000       0.49896000       0.06206000 </v>
   <v>       0.83393000       0.50234000       0.06235000 </v>
   <v>       0.00121000       0.66785000       0.00188000 </v>
   <v>       0.99493737       0.66397820       0.36129385 </v>
   <v>       0.16792000       0.83462000       0.06228000 </v>
   <v>       0.33437000       0.66664000       0.00225000 </v>
   <v>       0.50152000       0.83563000       0.06217000 </v>
   <v>       0.66753000       0.66705000       0.00175000 </v>
   <v>       0.66908296       0.66613945       0.35902760 </v>
   <v>       0.83293000       0.83584000       0.06235000 </v>
   <v>       0.00121000       0.00098000       0.12225000 </v>
   <v>       0.16700000       0.16811000       0.18239000 </v>
   <v>       0.33470000       0.00227000       0.12192000 </v>
   <v>       0.50174000       0.16716000       0.18263000 </v>
   <v>       0.83421000       0.16639000       0.18283000 </v>
   <v>       0.16964000       0.49868000       0.18209000 </v>
   <v>       0.50219000       0.50081000       0.18317000 </v>
   <v>       0.66741000       0.33395000       0.12233000 </v>
   <v>       0.83134000       0.50253000       0.18283000 </v>
   <v>       0.00132000       0.66795000       0.12253000 </v>
   <v>       0.16898000       0.83509000       0.18243000 </v>
   <v>       0.33446000       0.66703000       0.12223000 </v>
   <v>       0.49971000       0.83538000       0.18278000 </v>
   <v>       0.66698000       0.66840000       0.12259000 </v>
   <v>       0.83488000       0.83403000       0.18294000 </v>
   <v>       0.33558000       0.99863000       0.24353000 </v>
   <v>       0.66801000       0.33262000       0.24229000 </v>
   <v>       0.00448000       0.66739000       0.24217000 </v>
   <v>       0.49786758       0.83627137       0.30245981 </v>
   <v>       0.66521000       0.67351000       0.24327000 </v>
   <v>       0.66620000       0.99680000       0.00000000 </v>
   <v>       0.65715550      -0.00110594       0.36399298 </v>
   <v>       0.33213000       0.33386000       0.00135000 </v>
   <v>       0.33941913       0.32014515       0.36420188 </v>
   <v>       0.67040000       0.33673000       0.00321000 </v>
   <v>       0.65816747       0.33138650       0.36678086 </v>
   <v>       0.66728000       0.99998000       0.12246000 </v>
   <v>       0.99806000       0.33495000       0.12235000 </v>
   <v>       0.33675000       0.33238000       0.12261000 </v>
   <v>       0.33433153       0.67061631       0.39603825 </v>
  </varray>
  <varray name="selective"  type="logical" >
   <v type="logical" >  F  F  F </v>
   <v type="logical" >  T  T  T </v>
   <v type="logical" >  T  T  T </v>
   <v type="logical" >  F  F  F </v>
   <v type="logical" >  T  T  T </v>
   <v type="logical" >  F  F  F </v>
   <v type="logical" >  T  T  T </v>
   <v type="logical" >  F  F  F </v>
   <v type="logical" >  T  T  T </v>
   <v type="logical" >  T  T  T </v>
   <v type="logical" >  T  T  T </v>
   <v type="logical" >  F  F  F </v>
   <v type="logical" >  T  T  T </v>
   <v type="logical" >  F  F  F </v>
   <v type="logical" >  T  T  T </v>
   <v type="logical" >  F  F  F </v>
   <v type="logical" >  F  F  F </v>
   <v type="logical" >  T  T  T </v>
   <v type="logical" >  F  F  F </v>
   <v type="logical" >  F  F  F </v>
   <v type="logical" >  F  F  F </v>
   <v type="logical" >  T  T  T </v>
   <v type="logical" >  F  F  F </v>
   <v type="logical" >  F  F  F </v>
   <v type="logical" >  F  F  F </v>
   <v type="logical" >  F  F  F </v>
   <v type="logical" >  T  T  T </v>
   <v type="logical" >  F  F  F </v>
   <v type="logical" >  F  F  F </v>
   <v type="logical" >  F  F  F </v>
   <v type="logical" >  F  F  F </v>
   <v type="logical" >  T  T  T </v>
   <v type="logical" >  F  F  F </v>
   <v type="logical" >  F  F  F </v>
   <v type="logical" >  F  F  F </v>
   <v type="logical" >  F  F  F </v>
   <v type="logical" >  F  F  F </v>
   <v type="logical" >  F  F  F </v>
   <v type="logical" >  F  F  F </v>
   <v type="logical" >  F  F  F </v>
   <v type="logical" >  F  F  F </v>
   <v type="logical" >  F  F  F </v>
   <v type="logical" >  F  F  F </v>
   <v type="logical" >  F  F  F </v>
   <v type="logical" >  F  F  F </v>
   <v type="logical" >  F  F  F </v>
   <v type="logical" >  F  F  F </v>
   <v type="logical" >  F  F  F </v>
   <v type="logical" >  F  F  F </v>
   <v type="logical" >  F  F  F </v>
   <v type="logical" >  F  F  F </v>
   <v type="logical" >  T  T  T </v>
   <v type="logical" >  F  F  F </v>
   <v type="logical" >  F  F  F </v>
   <v type="logical" >  T  T  T </v>
   <v type="logical" >  F  F  F </v>
   <v type="logical" >  T  T  T </v>
   <v type="logical" >  F  F  F </v>
   <v type="logical" >  T  T  T </v>
   <v type="logical" >  F  F  F </v>
   <v type="logical" >  F  F  F </v>
   <v type="logical" >  F  F  F </v>
   <v type="logical" >  T  T  T </v>
  </varray>
  <nose>
   <v>      -3.00000000       0.00000000       0.00010000       0.00010000 </v>
  </nose>
 </structure>
</modeling>
