ni3al                                   
           1
     8.532700    0.000000    0.000000
    -0.000519    8.497000    0.000000
     0.000000    0.000000   23.594999
   Fe   Cr   Pb
    48    14     1
Direct configuration=     1
   0.00086000  0.99993000  0.24271000
   0.16518108  0.16628776  0.30293635
   0.49952769  0.16150146  0.30051064
   0.66822000  0.00107000  0.24272000
   0.83540605  0.16719181  0.30201547
   0.00044000  0.33497000  0.24240000
   0.17003923  0.50377992  0.30438006
   0.33469000  0.33305000  0.24267000
   0.49794545  0.50692546  0.30261104
   0.83350303  0.49977551  0.30155869
   0.16980569  0.83135723  0.30448561
   0.33342000  0.66555000  0.24261000
   0.83563525  0.83323349  0.30207079
   0.00064000  0.00119000  0.00199000
   0.00169283  0.00134563  0.36016866
   0.16843000  0.16962000  0.06269000
   0.33460000  0.00297000  0.00254000
   0.33298710  0.01077992  0.36233171
   0.50463000  0.16850000  0.06120000
   0.83272000  0.16670000  0.06193000
   0.00004000  0.33467000  0.00213000
   0.00330980  0.33456125  0.35986633
   0.16757000  0.49895000  0.06268000
   0.50099000  0.49896000  0.06206000
   0.83393000  0.50234000  0.06235000
   0.00121000  0.66785000  0.00188000
   0.99397154  0.66457574  0.36058292
   0.16792000  0.83462000  0.06228000
   0.33437000  0.66664000  0.00225000
   0.50152000  0.83563000  0.06217000
   0.66753000  0.66705000  0.00175000
   0.66771955  0.66560127  0.35896199
   0.83293000  0.83584000  0.06235000
   0.00121000  0.00098000  0.12225000
   0.16700000  0.16811000  0.18239000
   0.33470000  0.00227000  0.12192000
   0.50174000  0.16716000  0.18263000
   0.83421000  0.16639000  0.18283000
   0.16964000  0.49868000  0.18209000
   0.50219000  0.50081000  0.18317000
   0.66741000  0.33395000  0.12233000
   0.83134000  0.50253000  0.18283000
   0.00132000  0.66795000  0.12253000
   0.16898000  0.83509000  0.18243000
   0.33446000  0.66703000  0.12223000
   0.49971000  0.83538000  0.18278000
   0.66698000  0.66840000  0.12259000
   0.83488000  0.83403000  0.18294000
   0.33558000  0.99863000  0.24353000
   0.66801000  0.33262000  0.24229000
   0.00448000  0.66739000  0.24217000
   0.49700961  0.83449527  0.30353281
   0.66521000  0.67351000  0.24327000
   0.66620000  0.99680000  0.00000000
   0.65741120  0.99737461  0.36440436
   0.33213000  0.33386000  0.00135000
   0.34161521  0.32741666  0.36244025
   0.67040000  0.33673000  0.00321000
   0.65913892  0.33109159  0.36693066
   0.66728000  0.99998000  0.12246000
   0.99806000  0.33495000  0.12235000
   0.33675000  0.33238000  0.12261000
   0.16980569  0.83135723  0.42000000
Direct configuration=     2
   0.00086000  0.99993000  0.24271000
   0.16525815  0.16663495  0.30284419
   0.49993073  0.16216915  0.30046554
   0.66822000  0.00107000  0.24272000
   0.83508061  0.16701893  0.30192659
   0.00044000  0.33497000  0.24240000
   0.17024429  0.50409315  0.30448539
   0.33469000  0.33305000  0.24267000
   0.49787433  0.50674946  0.30255753
   0.83303773  0.49951469  0.30146288
   0.16978221  0.83150447  0.30336653
   0.33342000  0.66555000  0.24261000
   0.83526247  0.83322763  0.30195527
   0.00064000  0.00119000  0.00199000
  -0.00532807  0.00781086  0.35829982
   0.16843000  0.16962000  0.06269000
   0.33460000  0.00297000  0.00254000
   0.33923340  0.01630494  0.36084909
   0.50463000  0.16850000  0.06120000
   0.83272000  0.16670000  0.06193000
   0.00004000  0.33467000  0.00213000
   0.00291501  0.33488745  0.35994584
   0.16757000  0.49895000  0.06268000
   0.50099000  0.49896000  0.06206000
   0.83393000  0.50234000  0.06235000
   0.00121000  0.66785000  0.00188000
   0.98894259  0.65918475  0.35943974
   0.16792000  0.83462000  0.06228000
   0.33437000  0.66664000  0.00225000
   0.50152000  0.83563000  0.06217000
   0.66753000  0.66705000  0.00175000
   0.66786579  0.66550782  0.35896151
   0.83293000  0.83584000  0.06235000
   0.00121000  0.00098000  0.12225000
   0.16700000  0.16811000  0.18239000
   0.33470000  0.00227000  0.12192000
   0.50174000  0.16716000  0.18263000
   0.83421000  0.16639000  0.18283000
   0.16964000  0.49868000  0.18209000
   0.50219000  0.50081000  0.18317000
   0.66741000  0.33395000  0.12233000
   0.83134000  0.50253000  0.18283000
   0.00132000  0.66795000  0.12253000
   0.16898000  0.83509000  0.18243000
   0.33446000  0.66703000  0.12223000
   0.49971000  0.83538000  0.18278000
   0.66698000  0.66840000  0.12259000
   0.83488000  0.83403000  0.18294000
   0.33558000  0.99863000  0.24353000
   0.66801000  0.33262000  0.24229000
   0.00448000  0.66739000  0.24217000
   0.49676688  0.83471713  0.30372003
   0.66521000  0.67351000  0.24327000
   0.66620000  0.99680000  0.00000000
   0.65722248  0.99762980  0.36428057
   0.33213000  0.33386000  0.00135000
   0.34191591  0.32719732  0.36243269
   0.67040000  0.33673000  0.00321000
   0.65932975  0.33107430  0.36688659
   0.66728000  0.99998000  0.12246000
   0.99806000  0.33495000  0.12235000
   0.33675000  0.33238000  0.12261000
   0.17610616  0.82396902  0.42567056
Direct configuration=     3
   0.00086000  0.99993000  0.24271000
   0.16528045  0.16673539  0.30281752
   0.50004732  0.16236230  0.30045249
   0.66822000  0.00107000  0.24272000
   0.83498646  0.16696891  0.30190088
   0.00044000  0.33497000  0.24240000
   0.17030361  0.50418377  0.30451586
   0.33469000  0.33305000  0.24267000
   0.49785375  0.50669854  0.30254205
   0.83290313  0.49943923  0.30143517
   0.16977542  0.83154706  0.30304279
   0.33342000  0.66555000  0.24261000
   0.83515463  0.83322593  0.30192186
   0.00064000  0.00119000  0.00199000
  -0.00735915  0.00968118  0.35775919
   0.16843000  0.16962000  0.06269000
   0.33460000  0.00297000  0.00254000
   0.34104039  0.01790328  0.36042018
   0.50463000  0.16850000  0.06120000
   0.83272000  0.16670000  0.06193000
   0.00004000  0.33467000  0.00213000
   0.00280080  0.33498181  0.35996884
   0.16757000  0.49895000  0.06268000
   0.50099000  0.49896000  0.06206000
   0.83393000  0.50234000  0.06235000
   0.00121000  0.66785000  0.00188000
   0.98748777  0.65762519  0.35910902
   0.16792000  0.83462000  0.06228000
   0.33437000  0.66664000  0.00225000
   0.50152000  0.83563000  0.06217000
   0.66753000  0.66705000  0.00175000
   0.66790810  0.66548078  0.35896137
   0.83293000  0.83584000  0.06235000
   0.00121000  0.00098000  0.12225000
   0.16700000  0.16811000  0.18239000
   0.33470000  0.00227000  0.12192000
   0.50174000  0.16716000  0.18263000
   0.83421000  0.16639000  0.18283000
   0.16964000  0.49868000  0.18209000
   0.50219000  0.50081000  0.18317000
   0.66741000  0.33395000  0.12233000
   0.83134000  0.50253000  0.18283000
   0.00132000  0.66795000  0.12253000
   0.16898000  0.83509000  0.18243000
   0.33446000  0.66703000  0.12223000
   0.49971000  0.83538000  0.18278000
   0.66698000  0.66840000  0.12259000
   0.83488000  0.83403000  0.18294000
   0.33558000  0.99863000  0.24353000
   0.66801000  0.33262000  0.24229000
   0.00448000  0.66739000  0.24217000
   0.49669666  0.83478131  0.30377419
   0.66521000  0.67351000  0.24327000
   0.66620000  0.99680000  0.00000000
   0.65716789  0.99770362  0.36424476
   0.33213000  0.33386000  0.00135000
   0.34200290  0.32713387  0.36243050
   0.67040000  0.33673000  0.00321000
   0.65938495  0.33106930  0.36687385
   0.66728000  0.99998000  0.12246000
   0.99806000  0.33495000  0.12235000
   0.33675000  0.33238000  0.12261000
   0.17792882  0.82183168  0.42731101
Direct configuration=     4
   0.00086000  0.99993000  0.24271000
   0.16527866  0.16672734  0.30281966
   0.50003798  0.16234683  0.30045354
   0.66822000  0.00107000  0.24272000
   0.83499400  0.16697292  0.30190294
   0.00044000  0.33497000  0.24240000
   0.17029886  0.50417651  0.30451342
   0.33469000  0.33305000  0.24267000
   0.49785540  0.50670262  0.30254329
   0.83291391  0.49944528  0.30143739
   0.16977597  0.83154365  0.30306872
   0.33342000  0.66555000  0.24261000
   0.83516327  0.83322607  0.30192453
   0.00064000  0.00119000  0.00199000
  -0.00719643  0.00953134  0.35780250
   0.16843000  0.16962000  0.06269000
   0.33460000  0.00297000  0.00254000
   0.34089563  0.01777523  0.36045454
   0.50463000  0.16850000  0.06120000
   0.83272000  0.16670000  0.06193000
   0.00004000  0.33467000  0.00213000
   0.00280995  0.33497425  0.35996700
   0.16757000  0.49895000  0.06268000
   0.50099000  0.49896000  0.06206000
   0.83393000  0.50234000  0.06235000
   0.00121000  0.66785000  0.00188000
   0.98760432  0.65775014  0.35913552
   0.16792000  0.83462000  0.06228000
   0.33437000  0.66664000  0.00225000
   0.50152000  0.83563000  0.06217000
   0.66753000  0.66705000  0.00175000
   0.66790471  0.66548295  0.35896138
   0.83293000  0.83584000  0.06235000
   0.00121000  0.00098000  0.12225000
   0.16700000  0.16811000  0.18239000
   0.33470000  0.00227000  0.12192000
   0.50174000  0.16716000  0.18263000
   0.83421000  0.16639000  0.18283000
   0.16964000  0.49868000  0.18209000
   0.50219000  0.50081000  0.18317000
   0.66741000  0.33395000  0.12233000
   0.83134000  0.50253000  0.18283000
   0.00132000  0.66795000  0.12253000
   0.16898000  0.83509000  0.18243000
   0.33446000  0.66703000  0.12223000
   0.49971000  0.83538000  0.18278000
   0.66698000  0.66840000  0.12259000
   0.83488000  0.83403000  0.18294000
   0.33558000  0.99863000  0.24353000
   0.66801000  0.33262000  0.24229000
   0.00448000  0.66739000  0.24217000
   0.49670229  0.83477616  0.30376985
   0.66521000  0.67351000  0.24327000
   0.66620000  0.99680000  0.00000000
   0.65717227  0.99769771  0.36424763
   0.33213000  0.33386000  0.00135000
   0.34199593  0.32713895  0.36243067
   0.67040000  0.33673000  0.00321000
   0.65938053  0.33106970  0.36687487
   0.66728000  0.99998000  0.12246000
   0.99806000  0.33495000  0.12235000
   0.33675000  0.33238000  0.12261000
   0.17778280  0.82200291  0.42717958
Direct configuration=     5
   0.00086000  0.99993000  0.24271000
   0.16538441  0.16750924  0.30256112
   0.50176060  0.16351234  0.29990298
   0.66822000  0.00107000  0.24272000
   0.83324490  0.16812226  0.30141988
   0.00044000  0.33497000  0.24240000
   0.17073204  0.50423536  0.30454183
   0.33469000  0.33305000  0.24267000
   0.49782837  0.50650010  0.30255394
   0.83153711  0.49832560  0.30096652
   0.16929761  0.83218477  0.30360939
   0.33342000  0.66555000  0.24261000
   0.83464396  0.83320072  0.30171723
   0.00064000  0.00119000  0.00199000
  -0.00734222  0.00881440  0.35842586
   0.16843000  0.16962000  0.06269000
   0.33460000  0.00297000  0.00254000
   0.34121515  0.01768995  0.36081645
   0.50463000  0.16850000  0.06120000
   0.83272000  0.16670000  0.06193000
   0.00004000  0.33467000  0.00213000
   0.00289210  0.33540677  0.36013116
   0.16757000  0.49895000  0.06268000
   0.50099000  0.49896000  0.06206000
   0.83393000  0.50234000  0.06235000
   0.00121000  0.66785000  0.00188000
   0.98720882  0.65719796  0.35952108
   0.16792000  0.83462000  0.06228000
   0.33437000  0.66664000  0.00225000
   0.50152000  0.83563000  0.06217000
   0.66753000  0.66705000  0.00175000
   0.66782877  0.66550845  0.35894398
   0.83293000  0.83584000  0.06235000
   0.00121000  0.00098000  0.12225000
   0.16700000  0.16811000  0.18239000
   0.33470000  0.00227000  0.12192000
   0.50174000  0.16716000  0.18263000
   0.83421000  0.16639000  0.18283000
   0.16964000  0.49868000  0.18209000
   0.50219000  0.50081000  0.18317000
   0.66741000  0.33395000  0.12233000
   0.83134000  0.50253000  0.18283000
   0.00132000  0.66795000  0.12253000
   0.16898000  0.83509000  0.18243000
   0.33446000  0.66703000  0.12223000
   0.49971000  0.83538000  0.18278000
   0.66698000  0.66840000  0.12259000
   0.83488000  0.83403000  0.18294000
   0.33558000  0.99863000  0.24353000
   0.66801000  0.33262000  0.24229000
   0.00448000  0.66739000  0.24217000
   0.49647675  0.83482947  0.30382893
   0.66521000  0.67351000  0.24327000
   0.66620000  0.99680000  0.00000000
   0.65710691  0.99792022  0.36423130
   0.33213000  0.33386000  0.00135000
   0.34193915  0.32726151  0.36251307
   0.67040000  0.33673000  0.00321000
   0.65943678  0.33107521  0.36692840
   0.66728000  0.99998000  0.12246000
   0.99806000  0.33495000  0.12235000
   0.33675000  0.33238000  0.12261000
   0.18006766  0.82006320  0.42764865
Direct configuration=     6
   0.00086000  0.99993000  0.24271000
   0.16549481  0.16832554  0.30229121
   0.50355901  0.16472914  0.29932819
   0.66822000  0.00107000  0.24272000
   0.83141883  0.16932216  0.30091556
   0.00044000  0.33497000  0.24240000
   0.17118429  0.50429679  0.30457150
   0.33469000  0.33305000  0.24267000
   0.49780015  0.50628868  0.30256505
   0.83009973  0.49715665  0.30047493
   0.16879820  0.83285410  0.30417385
   0.33342000  0.66555000  0.24261000
   0.83410180  0.83317427  0.30150082
   0.00064000  0.00119000  0.00199000
  -0.00749441  0.00806591  0.35907665
   0.16843000  0.16962000  0.06269000
   0.33460000  0.00297000  0.00254000
   0.34154873  0.01760092  0.36119429
   0.50463000  0.16850000  0.06120000
   0.83272000  0.16670000  0.06193000
   0.00004000  0.33467000  0.00213000
   0.00297787  0.33585831  0.36030254
   0.16757000  0.49895000  0.06268000
   0.50099000  0.49896000  0.06206000
   0.83393000  0.50234000  0.06235000
   0.00121000  0.66785000  0.00188000
   0.98679592  0.65662149  0.35992361
   0.16792000  0.83462000  0.06228000
   0.33437000  0.66664000  0.00225000
   0.50152000  0.83563000  0.06217000
   0.66753000  0.66705000  0.00175000
   0.66774950  0.66553506  0.35892581
   0.83293000  0.83584000  0.06235000
   0.00121000  0.00098000  0.12225000
   0.16700000  0.16811000  0.18239000
   0.33470000  0.00227000  0.12192000
   0.50174000  0.16716000  0.18263000
   0.83421000  0.16639000  0.18283000
   0.16964000  0.49868000  0.18209000
   0.50219000  0.50081000  0.18317000
   0.66741000  0.33395000  0.12233000
   0.83134000  0.50253000  0.18283000
   0.00132000  0.66795000  0.12253000
   0.16898000  0.83509000  0.18243000
   0.33446000  0.66703000  0.12223000
   0.49971000  0.83538000  0.18278000
   0.66698000  0.66840000  0.12259000
   0.83488000  0.83403000  0.18294000
   0.33558000  0.99863000  0.24353000
   0.66801000  0.33262000  0.24229000
   0.00448000  0.66739000  0.24217000
   0.49624130  0.83488512  0.30389061
   0.66521000  0.67351000  0.24327000
   0.66620000  0.99680000  0.00000000
   0.65703868  0.99815251  0.36421426
   0.33213000  0.33386000  0.00135000
   0.34187987  0.32738946  0.36259909
   0.67040000  0.33673000  0.00321000
   0.65949550  0.33108097  0.36698430
   0.66728000  0.99998000  0.12246000
   0.99806000  0.33495000  0.12235000
   0.33675000  0.33238000  0.12261000
   0.18245304  0.81803816  0.42813835
Direct configuration=     7
   0.00086000  0.99993000  0.24271000
   0.16514641  0.16826558  0.30249293
   0.50347942  0.16513507  0.29931800
   0.66822000  0.00107000  0.24272000
   0.83197373  0.16894756  0.30102866
   0.00044000  0.33497000  0.24240000
   0.17106391  0.50466712  0.30469288
   0.33469000  0.33305000  0.24267000
   0.49764050  0.50618651  0.30256402
   0.82972911  0.49739222  0.30042889
   0.16827456  0.83343829  0.30482656
   0.33342000  0.66555000  0.24261000
   0.83414154  0.83303300  0.30160799
   0.00064000  0.00119000  0.00199000
  -0.00768837  0.00772551  0.35930578
   0.16843000  0.16962000  0.06269000
   0.33460000  0.00297000  0.00254000
   0.34203592  0.01824746  0.36120715
   0.50463000  0.16850000  0.06120000
   0.83272000  0.16670000  0.06193000
   0.00004000  0.33467000  0.00213000
   0.00289766  0.33618904  0.36024086
   0.16757000  0.49895000  0.06268000
   0.50099000  0.49896000  0.06206000
   0.83393000  0.50234000  0.06235000
   0.00121000  0.66785000  0.00188000
   0.98605747  0.65589800  0.36011300
   0.16792000  0.83462000  0.06228000
   0.33437000  0.66664000  0.00225000
   0.50152000  0.83563000  0.06217000
   0.66753000  0.66705000  0.00175000
   0.66779570  0.66548739  0.35884249
   0.83293000  0.83584000  0.06235000
   0.00121000  0.00098000  0.12225000
   0.16700000  0.16811000  0.18239000
   0.33470000  0.00227000  0.12192000
   0.50174000  0.16716000  0.18263000
   0.83421000  0.16639000  0.18283000
   0.16964000  0.49868000  0.18209000
   0.50219000  0.50081000  0.18317000
   0.66741000  0.33395000  0.12233000
   0.83134000  0.50253000  0.18283000
   0.00132000  0.66795000  0.12253000
   0.16898000  0.83509000  0.18243000
   0.33446000  0.66703000  0.12223000
   0.49971000  0.83538000  0.18278000
   0.66698000  0.66840000  0.12259000
   0.83488000  0.83403000  0.18294000
   0.33558000  0.99863000  0.24353000
   0.66801000  0.33262000  0.24229000
   0.00448000  0.66739000  0.24217000
   0.49578264  0.83530591  0.30397698
   0.66521000  0.67351000  0.24327000
   0.66620000  0.99680000  0.00000000
   0.65709070  0.99859244  0.36413991
   0.33213000  0.33386000  0.00135000
   0.34182913  0.32704916  0.36269373
   0.67040000  0.33673000  0.00321000
   0.65943362  0.33113486  0.36715718
   0.66728000  0.99998000  0.12246000
   0.99806000  0.33495000  0.12235000
   0.33675000  0.33238000  0.12261000
   0.18506238  0.81574893  0.42814514
Direct configuration=     8
   0.00086000  0.99993000  0.24271000
   0.16410119  0.16808570  0.30309806
   0.50324064  0.16635288  0.29928743
   0.66822000  0.00107000  0.24272000
   0.83363841  0.16782375  0.30136795
   0.00044000  0.33497000  0.24240000
   0.17070279  0.50577809  0.30505705
   0.33469000  0.33305000  0.24267000
   0.49716154  0.50588003  0.30256091
   0.82861724  0.49809892  0.30029078
   0.16670362  0.83519084  0.30678467
   0.33342000  0.66555000  0.24261000
   0.83426074  0.83260918  0.30192953
   0.00064000  0.00119000  0.00199000
  -0.00827025  0.00670433  0.35999318
   0.16843000  0.16962000  0.06269000
   0.33460000  0.00297000  0.00254000
   0.34349748  0.02018705  0.36124573
   0.50463000  0.16850000  0.06120000
   0.83272000  0.16670000  0.06193000
   0.00004000  0.33467000  0.00213000
   0.00265706  0.33718125  0.36005582
   0.16757000  0.49895000  0.06268000
   0.50099000  0.49896000  0.06206000
   0.83393000  0.50234000  0.06235000
   0.00121000  0.66785000  0.00188000
   0.98384213  0.65372753  0.36068117
   0.16792000  0.83462000  0.06228000
   0.33437000  0.66664000  0.00225000
   0.50152000  0.83563000  0.06217000
   0.66753000  0.66705000  0.00175000
   0.66793432  0.66534437  0.35859253
   0.83293000  0.83584000  0.06235000
   0.00121000  0.00098000  0.12225000
   0.16700000  0.16811000  0.18239000
   0.33470000  0.00227000  0.12192000
   0.50174000  0.16716000  0.18263000
   0.83421000  0.16639000  0.18283000
   0.16964000  0.49868000  0.18209000
   0.50219000  0.50081000  0.18317000
   0.66741000  0.33395000  0.12233000
   0.83134000  0.50253000  0.18283000
   0.00132000  0.66795000  0.12253000
   0.16898000  0.83509000  0.18243000
   0.33446000  0.66703000  0.12223000
   0.49971000  0.83538000  0.18278000
   0.66698000  0.66840000  0.12259000
   0.83488000  0.83403000  0.18294000
   0.33558000  0.99863000  0.24353000
   0.66801000  0.33262000  0.24229000
   0.00448000  0.66739000  0.24217000
   0.49440666  0.83656831  0.30423609
   0.66521000  0.67351000  0.24327000
   0.66620000  0.99680000  0.00000000
   0.65724675  0.99991222  0.36391686
   0.33213000  0.33386000  0.00135000
   0.34167691  0.32602826  0.36297765
   0.67040000  0.33673000  0.00321000
   0.65924798  0.33129656  0.36767582
   0.66728000  0.99998000  0.12246000
   0.99806000  0.33495000  0.12235000
   0.33675000  0.33238000  0.12261000
   0.19289038  0.80888123  0.42816553
Direct configuration=     9
   0.00086000  0.99993000  0.24271000
   0.16411767  0.16809974  0.30320060
   0.50334052  0.16629867  0.29936422
   0.66822000  0.00107000  0.24272000
   0.83390373  0.16781347  0.30155013
   0.00044000  0.33497000  0.24240000
   0.17058599  0.50612441  0.30515688
   0.33469000  0.33305000  0.24267000
   0.49683944  0.50586133  0.30257601
   0.82874964  0.49791714  0.30027739
   0.16665323  0.83488621  0.30664637
   0.33342000  0.66555000  0.24261000
   0.83409730  0.83285779  0.30202274
   0.00064000  0.00119000  0.00199000
  -0.00798295  0.00578667  0.36045547
   0.16843000  0.16962000  0.06269000
   0.33460000  0.00297000  0.00254000
   0.34352506  0.02060973  0.36154623
   0.50463000  0.16850000  0.06120000
   0.83272000  0.16670000  0.06193000
   0.00004000  0.33467000  0.00213000
   0.00249536  0.33759592  0.36011032
   0.16757000  0.49895000  0.06268000
   0.50099000  0.49896000  0.06206000
   0.83393000  0.50234000  0.06235000
   0.00121000  0.66785000  0.00188000
   0.98349722  0.65367228  0.36115098
   0.16792000  0.83462000  0.06228000
   0.33437000  0.66664000  0.00225000
   0.50152000  0.83563000  0.06217000
   0.66753000  0.66705000  0.00175000
   0.66748986  0.66570434  0.35861146
   0.83293000  0.83584000  0.06235000
   0.00121000  0.00098000  0.12225000
   0.16700000  0.16811000  0.18239000
   0.33470000  0.00227000  0.12192000
   0.50174000  0.16716000  0.18263000
   0.83421000  0.16639000  0.18283000
   0.16964000  0.49868000  0.18209000
   0.50219000  0.50081000  0.18317000
   0.66741000  0.33395000  0.12233000
   0.83134000  0.50253000  0.18283000
   0.00132000  0.66795000  0.12253000
   0.16898000  0.83509000  0.18243000
   0.33446000  0.66703000  0.12223000
   0.49971000  0.83538000  0.18278000
   0.66698000  0.66840000  0.12259000
   0.83488000  0.83403000  0.18294000
   0.33558000  0.99863000  0.24353000
   0.66801000  0.33262000  0.24229000
   0.00448000  0.66739000  0.24217000
   0.49404503  0.83688921  0.30429189
   0.66521000  0.67351000  0.24327000
   0.66620000  0.99680000  0.00000000
   0.65716446  0.00007388  0.36385347
   0.33213000  0.33386000  0.00135000
   0.34132314  0.32580805  0.36314435
   0.67040000  0.33673000  0.00321000
   0.65940296  0.33135487  0.36784227
   0.66728000  0.99998000  0.12246000
   0.99806000  0.33495000  0.12235000
   0.33675000  0.33238000  0.12261000
   0.19708167  0.80517537  0.42748885
Direct configuration=    10
   0.00086000  0.99993000  0.24271000
   0.16416714  0.16814185  0.30350821
   0.50364015  0.16613605  0.29959462
   0.66822000  0.00107000  0.24272000
   0.83469969  0.16778263  0.30209669
   0.00044000  0.33497000  0.24240000
   0.17023559  0.50716340  0.30545640
   0.33469000  0.33305000  0.24267000
   0.49587316  0.50580522  0.30262130
   0.82914681  0.49737181  0.30023720
   0.16650206  0.83397229  0.30623149
   0.33342000  0.66555000  0.24261000
   0.83360697  0.83360361  0.30230237
   0.00064000  0.00119000  0.00199000
  -0.00712107  0.00303367  0.36184233
   0.16843000  0.16962000  0.06269000
   0.33460000  0.00297000  0.00254000
   0.34360778  0.02187777  0.36244775
   0.50463000  0.16850000  0.06120000
   0.83272000  0.16670000  0.06193000
   0.00004000  0.33467000  0.00213000
   0.00201026  0.33883994  0.36027382
   0.16757000  0.49895000  0.06268000
   0.50099000  0.49896000  0.06206000
   0.83393000  0.50234000  0.06235000
   0.00121000  0.66785000  0.00188000
   0.98246250  0.65350651  0.36256039
   0.16792000  0.83462000  0.06228000
   0.33437000  0.66664000  0.00225000
   0.50152000  0.83563000  0.06217000
   0.66753000  0.66705000  0.00175000
   0.66615650  0.66678426  0.35866826
   0.83293000  0.83584000  0.06235000
   0.00121000  0.00098000  0.12225000
   0.16700000  0.16811000  0.18239000
   0.33470000  0.00227000  0.12192000
   0.50174000  0.16716000  0.18263000
   0.83421000  0.16639000  0.18283000
   0.16964000  0.49868000  0.18209000
   0.50219000  0.50081000  0.18317000
   0.66741000  0.33395000  0.12233000
   0.83134000  0.50253000  0.18283000
   0.00132000  0.66795000  0.12253000
   0.16898000  0.83509000  0.18243000
   0.33446000  0.66703000  0.12223000
   0.49971000  0.83538000  0.18278000
   0.66698000  0.66840000  0.12259000
   0.83488000  0.83403000  0.18294000
   0.33558000  0.99863000  0.24353000
   0.66801000  0.33262000  0.24229000
   0.00448000  0.66739000  0.24217000
   0.49296016  0.83785191  0.30445931
   0.66521000  0.67351000  0.24327000
   0.66620000  0.99680000  0.00000000
   0.65691762  0.00055887  0.36366330
   0.33213000  0.33386000  0.00135000
   0.34026184  0.32514741  0.36364447
   0.67040000  0.33673000  0.00321000
   0.65986789  0.33152979  0.36834159
   0.66728000  0.99998000  0.12246000
   0.99806000  0.33495000  0.12235000
   0.33675000  0.33238000  0.12261000
   0.20965554  0.79405779  0.42545879
Direct configuration=    11
   0.00086000  0.99993000  0.24271000
   0.16426606  0.16822608  0.30412344
   0.50423940  0.16581081  0.30005542
   0.66822000  0.00107000  0.24272000
   0.83629161  0.16772096  0.30318980
   0.00044000  0.33497000  0.24240000
   0.16953480  0.50924136  0.30605543
   0.33469000  0.33305000  0.24267000
   0.49394060  0.50569302  0.30271188
   0.82994117  0.49628114  0.30015682
   0.16619971  0.83214447  0.30540173
   0.33342000  0.66555000  0.24261000
   0.83262630  0.83509524  0.30286163
   0.00064000  0.00119000  0.00199000
  -0.00539729 -0.00247231  0.36461606
   0.16843000  0.16962000  0.06269000
   0.33460000  0.00297000  0.00254000
   0.34377322  0.02441384  0.36425079
   0.50463000  0.16850000  0.06120000
   0.83272000  0.16670000  0.06193000
   0.00004000  0.33467000  0.00213000
   0.00104007  0.34132799  0.36060081
   0.16757000  0.49895000  0.06268000
   0.50099000  0.49896000  0.06206000
   0.83393000  0.50234000  0.06235000
   0.00121000  0.66785000  0.00188000
   0.98039305  0.65317496  0.36537922
   0.16792000  0.83462000  0.06228000
   0.33437000  0.66664000  0.00225000
   0.50152000  0.83563000  0.06217000
   0.66753000  0.66705000  0.00175000
   0.66348977  0.66894410  0.35878185
   0.83293000  0.83584000  0.06235000
   0.00121000  0.00098000  0.12225000
   0.16700000  0.16811000  0.18239000
   0.33470000  0.00227000  0.12192000
   0.50174000  0.16716000  0.18263000
   0.83421000  0.16639000  0.18283000
   0.16964000  0.49868000  0.18209000
   0.50219000  0.50081000  0.18317000
   0.66741000  0.33395000  0.12233000
   0.83134000  0.50253000  0.18283000
   0.00132000  0.66795000  0.12253000
   0.16898000  0.83509000  0.18243000
   0.33446000  0.66703000  0.12223000
   0.49971000  0.83538000  0.18278000
   0.66698000  0.66840000  0.12259000
   0.83488000  0.83403000  0.18294000
   0.33558000  0.99863000  0.24353000
   0.66801000  0.33262000  0.24229000
   0.00448000  0.66739000  0.24217000
   0.49079040  0.83977731  0.30479413
   0.66521000  0.67351000  0.24327000
   0.66620000  0.99680000  0.00000000
   0.65642392  0.00152883  0.36328296
   0.33213000  0.33386000  0.00135000
   0.33813923  0.32382613  0.36464470
   0.67040000  0.33673000  0.00321000
   0.66079776  0.33187964  0.36934025
   0.66728000  0.99998000  0.12246000
   0.99806000  0.33495000  0.12235000
   0.33675000  0.33238000  0.12261000
   0.23480328  0.77182262  0.42139869
Direct configuration=    12
   0.00086000  0.99993000  0.24271000
   0.16446391  0.16839454  0.30535389
   0.50543792  0.16516034  0.30097701
   0.66822000  0.00107000  0.24272000
   0.83947545  0.16759761  0.30537603
   0.00044000  0.33497000  0.24240000
   0.16813322  0.51339730  0.30725349
   0.33469000  0.33305000  0.24267000
   0.49007547  0.50546860  0.30289303
   0.83152987  0.49409982  0.29999606
   0.16559501  0.82848881  0.30374221
   0.33342000  0.66555000  0.24261000
   0.83066497  0.83807852  0.30398014
   0.00064000  0.00119000  0.00199000
  -0.00194975 -0.01348429  0.37016352
   0.16843000  0.16962000  0.06269000
   0.33460000  0.00297000  0.00254000
   0.34410410  0.02948599  0.36785686
   0.50463000  0.16850000  0.06120000
   0.83272000  0.16670000  0.06193000
   0.00004000  0.33467000  0.00213000
  -0.00090032  0.34630407  0.36125480
   0.16757000  0.49895000  0.06268000
   0.50099000  0.49896000  0.06206000
   0.83393000  0.50234000  0.06235000
   0.00121000  0.66785000  0.00188000
   0.97625416  0.65251187  0.37101687
   0.16792000  0.83462000  0.06228000
   0.33437000  0.66664000  0.00225000
   0.50152000  0.83563000  0.06217000
   0.66753000  0.66705000  0.00175000
   0.65815630  0.67326378  0.35900904
   0.83293000  0.83584000  0.06235000
   0.00121000  0.00098000  0.12225000
   0.16700000  0.16811000  0.18239000
   0.33470000  0.00227000  0.12192000
   0.50174000  0.16716000  0.18263000
   0.83421000  0.16639000  0.18283000
   0.16964000  0.49868000  0.18209000
   0.50219000  0.50081000  0.18317000
   0.66741000  0.33395000  0.12233000
   0.83134000  0.50253000  0.18283000
   0.00132000  0.66795000  0.12253000
   0.16898000  0.83509000  0.18243000
   0.33446000  0.66703000  0.12223000
   0.49971000  0.83538000  0.18278000
   0.66698000  0.66840000  0.12259000
   0.83488000  0.83403000  0.18294000
   0.33558000  0.99863000  0.24353000
   0.66801000  0.33262000  0.24229000
   0.00448000  0.66739000  0.24217000
   0.48645090  0.84362812  0.30546379
   0.66521000  0.67351000  0.24327000
   0.66620000  0.99680000  0.00000000
   0.65543654  0.00346877  0.36252228
   0.33213000  0.33386000  0.00135000
   0.33389402  0.32118359  0.36664516
   0.67040000  0.33673000  0.00321000
   0.66265749  0.33257934  0.37133756
   0.66728000  0.99998000  0.12246000
   0.99806000  0.33495000  0.12235000
   0.33675000  0.33238000  0.12261000
   0.28509877  0.72735227  0.41327848
Direct configuration=    13
   0.00086000  0.99993000  0.24271000
   0.16436736  0.16831233  0.30475340
   0.50485302  0.16547778  0.30052725
   0.66822000  0.00107000  0.24272000
   0.83792167  0.16765781  0.30430910
   0.00044000  0.33497000  0.24240000
   0.16881722  0.51136912  0.30666881
   0.33469000  0.33305000  0.24267000
   0.49196174  0.50557812  0.30280462
   0.83075455  0.49516435  0.30007452
   0.16589011  0.83027285  0.30455209
   0.33342000  0.66555000  0.24261000
   0.83162214  0.83662262  0.30343428
   0.00064000  0.00119000  0.00199000
  -0.00363222 -0.00811021  0.36745625
   0.16843000  0.16962000  0.06269000
   0.33460000  0.00297000  0.00254000
   0.34394262  0.02701068  0.36609702