  63  63   0   0
  0.2715385E+02  0.8532700E-09  0.8497000E-09  0.2359500E-08  0.5000000E-15
  1.000000000000000E-004
  CAR 
 ni3al                                   
      5.50260745    -45.69478258  301      0.95002795      1.00000000
    -45.695  0.0000E+00  0.0000E+00  0.0000E+00  0.0000E+00
    -45.524  0.0000E+00  0.0000E+00  0.0000E+00  0.0000E+00
    -45.353  0.0000E+00  0.0000E+00  0.0000E+00  0.0000E+00
    -45.183  0.0000E+00  0.0000E+00  0.0000E+00  0.0000E+00
    -45.012  0.0000E+00  0.0000E+00  0.0000E+00  0.0000E+00
    -44.841  0.0000E+00  0.0000E+00  0.0000E+00  0.0000E+00
    -44.671  0.0000E+00  0.0000E+00  0.0000E+00  0.0000E+00
    -44.500  0.0000E+00  0.0000E+00  0.0000E+00  0.0000E+00
    -44.330  0.0000E+00  0.0000E+00  0.0000E+00  0.0000E+00
    -44.159  0.0000E+00  0.0000E+00  0.0000E+00  0.0000E+00
    -43.988  0.0000E+00  0.0000E+00  0.0000E+00  0.0000E+00
    -43.818  0.0000E+00  0.0000E+00  0.0000E+00  0.0000E+00
    -43.647  0.0000E+00  0.0000E+00  0.0000E+00  0.0000E+00
    -43.476  0.0000E+00  0.0000E+00  0.0000E+00  0.0000E+00
    -43.306  0.0000E+00  0.1172E+02  0.0000E+00  0.2000E+01
    -43.135  0.0000E+00  0.7032E+02  0.0000E+00  0.1400E+02
    -42.964  0.0000E+00  0.2344E+02  0.0000E+00  0.1800E+02
    -42.794  0.2930E+02  0.5860E+01  0.5000E+01  0.1900E+02
    -42.623  0.4102E+02  0.2344E+02  0.1200E+02  0.2300E+02
    -42.452  0.0000E+00  0.5860E+01  0.1200E+02  0.2400E+02
    -42.282  0.0000E+00  0.0000E+00  0.1200E+02  0.2400E+02
    -42.111  0.1758E+02  0.1172E+02  0.1500E+02  0.2600E+02
    -41.940  0.3516E+02  0.1172E+02  0.2100E+02  0.2800E+02
    -41.770  0.9961E+02  0.5860E+01  0.3800E+02  0.2900E+02
    -41.599  0.5860E+01  0.5860E+01  0.3900E+02  0.3000E+02
    -41.428  0.0000E+00  0.0000E+00  0.3900E+02  0.3000E+02
    -41.258  0.0000E+00  0.0000E+00  0.3900E+02  0.3000E+02
    -41.087  0.0000E+00  0.0000E+00  0.3900E+02  0.3000E+02
    -40.916  0.0000E+00  0.0000E+00  0.3900E+02  0.3000E+02
    -40.746  0.0000E+00  0.0000E+00  0.3900E+02  0.3000E+02
    -40.575  0.0000E+00  0.0000E+00  0.3900E+02  0.3000E+02
    -40.404  0.0000E+00  0.1172E+02  0.3900E+02  0.3200E+02
    -40.234  0.1172E+02  0.0000E+00  0.4100E+02  0.3200E+02
    -40.063  0.5860E+01  0.1172E+02  0.4200E+02  0.3400E+02
    -39.892  0.0000E+00  0.2930E+02  0.4200E+02  0.3900E+02
    -39.722  0.0000E+00  0.1172E+02  0.4200E+02  0.4100E+02
    -39.551  0.0000E+00  0.5860E+01  0.4200E+02  0.4200E+02
    -39.380  0.0000E+00  0.0000E+00  0.4200E+02  0.4200E+02
    -39.210  0.0000E+00  0.0000E+00  0.4200E+02  0.4200E+02
    -39.039  0.0000E+00  0.0000E+00  0.4200E+02  0.4200E+02
    -38.868  0.0000E+00  0.0000E+00  0.4200E+02  0.4200E+02
    -38.698  0.0000E+00  0.0000E+00  0.4200E+02  0.4200E+02
    -38.527  0.0000E+00  0.0000E+00  0.4200E+02  0.4200E+02
    -38.356  0.0000E+00  0.0000E+00  0.4200E+02  0.4200E+02
    -38.186  0.0000E+00  0.0000E+00  0.4200E+02  0.4200E+02
    -38.015  0.0000E+00  0.0000E+00  0.4200E+02  0.4200E+02
    -37.845  0.0000E+00  0.0000E+00  0.4200E+02  0.4200E+02
    -37.674  0.0000E+00  0.0000E+00  0.4200E+02  0.4200E+02
    -37.503  0.0000E+00  0.0000E+00  0.4200E+02  0.4200E+02
    -37.333  0.0000E+00  0.0000E+00  0.4200E+02  0.4200E+02
    -37.162  0.0000E+00  0.0000E+00  0.4200E+02  0.4200E+02
    -36.991  0.0000E+00  0.0000E+00  0.4200E+02  0.4200E+02
    -36.821  0.0000E+00  0.0000E+00  0.4200E+02  0.4200E+02
    -36.650  0.0000E+00  0.0000E+00  0.4200E+02  0.4200E+02
    -36.479  0.0000E+00  0.0000E+00  0.4200E+02  0.4200E+02
    -36.309  0.0000E+00  0.0000E+00  0.4200E+02  0.4200E+02
    -36.138  0.0000E+00  0.0000E+00  0.4200E+02  0.4200E+02
    -35.967  0.0000E+00  0.0000E+00  0.4200E+02  0.4200E+02
    -35.797  0.0000E+00  0.0000E+00  0.4200E+02  0.4200E+02
    -35.626  0.0000E+00  0.0000E+00  0.4200E+02  0.4200E+02
    -35.455  0.0000E+00  0.0000E+00  0.4200E+02  0.4200E+02
    -35.285  0.0000E+00  0.0000E+00  0.4200E+02  0.4200E+02
    -35.114  0.0000E+00  0.0000E+00  0.4200E+02  0.4200E+02
    -34.943  0.0000E+00  0.0000E+00  0.4200E+02  0.4200E+02
    -34.773  0.0000E+00  0.0000E+00  0.4200E+02  0.4200E+02
    -34.602  0.0000E+00  0.0000E+00  0.4200E+02  0.4200E+02
    -34.431  0.0000E+00  0.0000E+00  0.4200E+02  0.4200E+02
    -34.261  0.0000E+00  0.0000E+00  0.4200E+02  0.4200E+02
    -34.090  0.0000E+00  0.0000E+00  0.4200E+02  0.4200E+02
    -33.919  0.0000E+00  0.0000E+00  0.4200E+02  0.4200E+02
    -33.749  0.0000E+00  0.0000E+00  0.4200E+02  0.4200E+02
    -33.578  0.0000E+00  0.0000E+00  0.4200E+02  0.4200E+02
    -33.407  0.0000E+00  0.0000E+00  0.4200E+02  0.4200E+02
    -33.237  0.0000E+00  0.0000E+00  0.4200E+02  0.4200E+02
    -33.066  0.0000E+00  0.0000E+00  0.4200E+02  0.4200E+02
    -32.895  0.0000E+00  0.0000E+00  0.4200E+02  0.4200E+02
    -32.725  0.0000E+00  0.0000E+00  0.4200E+02  0.4200E+02
    -32.554  0.0000E+00  0.0000E+00  0.4200E+02  0.4200E+02
    -32.383  0.0000E+00  0.0000E+00  0.4200E+02  0.4200E+02
    -32.213  0.0000E+00  0.0000E+00  0.4200E+02  0.4200E+02
    -32.042  0.0000E+00  0.0000E+00  0.4200E+02  0.4200E+02
    -31.871  0.0000E+00  0.0000E+00  0.4200E+02  0.4200E+02
    -31.701  0.0000E+00  0.0000E+00  0.4200E+02  0.4200E+02
    -31.530  0.0000E+00  0.0000E+00  0.4200E+02  0.4200E+02
    -31.360  0.0000E+00  0.0000E+00  0.4200E+02  0.4200E+02
    -31.189  0.0000E+00  0.0000E+00  0.4200E+02  0.4200E+02
    -31.018  0.0000E+00  0.0000E+00  0.4200E+02  0.4200E+02
    -30.848  0.0000E+00  0.0000E+00  0.4200E+02  0.4200E+02
    -30.677  0.0000E+00  0.0000E+00  0.4200E+02  0.4200E+02
    -30.506  0.0000E+00  0.0000E+00  0.4200E+02  0.4200E+02
    -30.336  0.0000E+00  0.0000E+00  0.4200E+02  0.4200E+02
    -30.165  0.0000E+00  0.0000E+00  0.4200E+02  0.4200E+02
    -29.994  0.0000E+00  0.0000E+00  0.4200E+02  0.4200E+02
    -29.824  0.0000E+00  0.0000E+00  0.4200E+02  0.4200E+02
    -29.653  0.0000E+00  0.0000E+00  0.4200E+02  0.4200E+02
    -29.482  0.0000E+00  0.0000E+00  0.4200E+02  0.4200E+02
    -29.312  0.0000E+00  0.0000E+00  0.4200E+02  0.4200E+02
    -29.141  0.0000E+00  0.0000E+00  0.4200E+02  0.4200E+02
    -28.970  0.0000E+00  0.0000E+00  0.4200E+02  0.4200E+02
    -28.800  0.0000E+00  0.0000E+00  0.4200E+02  0.4200E+02
    -28.629  0.0000E+00  0.0000E+00  0.4200E+02  0.4200E+02
    -28.458  0.0000E+00  0.0000E+00  0.4200E+02  0.4200E+02
    -28.288  0.0000E+00  0.0000E+00  0.4200E+02  0.4200E+02
    -28.117  0.0000E+00  0.0000E+00  0.4200E+02  0.4200E+02
    -27.946  0.0000E+00  0.0000E+00  0.4200E+02  0.4200E+02
    -27.776  0.0000E+00  0.0000E+00  0.4200E+02  0.4200E+02
    -27.605  0.0000E+00  0.0000E+00  0.4200E+02  0.4200E+02
    -27.434  0.0000E+00  0.0000E+00  0.4200E+02  0.4200E+02
    -27.264  0.0000E+00  0.0000E+00  0.4200E+02  0.4200E+02
    -27.093  0.0000E+00  0.0000E+00  0.4200E+02  0.4200E+02
    -26.922  0.0000E+00  0.0000E+00  0.4200E+02  0.4200E+02
    -26.752  0.0000E+00  0.0000E+00  0.4200E+02  0.4200E+02
    -26.581  0.0000E+00  0.0000E+00  0.4200E+02  0.4200E+02
    -26.410  0.0000E+00  0.0000E+00  0.4200E+02  0.4200E+02
    -26.240  0.0000E+00  0.0000E+00  0.4200E+02  0.4200E+02
    -26.069  0.0000E+00  0.0000E+00  0.4200E+02  0.4200E+02
    -25.898  0.0000E+00  0.0000E+00  0.4200E+02  0.4200E+02
    -25.728  0.0000E+00  0.0000E+00  0.4200E+02  0.4200E+02
    -25.557  0.0000E+00  0.0000E+00  0.4200E+02  0.4200E+02
    -25.386  0.0000E+00  0.0000E+00  0.4200E+02  0.4200E+02
    -25.216  0.0000E+00  0.0000E+00  0.4200E+02  0.4200E+02
    -25.045  0.0000E+00  0.0000E+00  0.4200E+02  0.4200E+02
    -24.875  0.0000E+00  0.0000E+00  0.4200E+02  0.4200E+02
    -24.704  0.0000E+00  0.0000E+00  0.4200E+02  0.4200E+02
    -24.533  0.0000E+00  0.0000E+00  0.4200E+02  0.4200E+02
    -24.363  0.0000E+00  0.0000E+00  0.4200E+02  0.4200E+02
    -24.192  0.0000E+00  0.0000E+00  0.4200E+02  0.4200E+02
    -24.021  0.0000E+00  0.0000E+00  0.4200E+02  0.4200E+02
    -23.851  0.0000E+00  0.0000E+00  0.4200E+02  0.4200E+02
    -23.680  0.0000E+00  0.0000E+00  0.4200E+02  0.4200E+02
    -23.509  0.0000E+00  0.0000E+00  0.4200E+02  0.4200E+02
    -23.339  0.0000E+00  0.0000E+00  0.4200E+02  0.4200E+02
    -23.168  0.0000E+00  0.0000E+00  0.4200E+02  0.4200E+02
    -22.997  0.0000E+00  0.0000E+00  0.4200E+02  0.4200E+02
    -22.827  0.0000E+00  0.0000E+00  0.4200E+02  0.4200E+02
    -22.656  0.0000E+00  0.0000E+00  0.4200E+02  0.4200E+02
    -22.485  0.0000E+00  0.0000E+00  0.4200E+02  0.4200E+02
    -22.315  0.0000E+00  0.0000E+00  0.4200E+02  0.4200E+02
    -22.144  0.0000E+00  0.0000E+00  0.4200E+02  0.4200E+02
    -21.973  0.0000E+00  0.0000E+00  0.4200E+02  0.4200E+02
    -21.803  0.0000E+00  0.0000E+00  0.4200E+02  0.4200E+02
    -21.632  0.0000E+00  0.0000E+00  0.4200E+02  0.4200E+02
    -21.461  0.0000E+00  0.0000E+00  0.4200E+02  0.4200E+02
    -21.291  0.0000E+00  0.0000E+00  0.4200E+02  0.4200E+02
    -21.120  0.0000E+00  0.0000E+00  0.4200E+02  0.4200E+02
    -20.949  0.0000E+00  0.0000E+00  0.4200E+02  0.4200E+02
    -20.779  0.0000E+00  0.0000E+00  0.4200E+02  0.4200E+02
    -20.608  0.0000E+00  0.0000E+00  0.4200E+02  0.4200E+02
    -20.437  0.0000E+00  0.0000E+00  0.4200E+02  0.4200E+02
    -20.267  0.0000E+00  0.0000E+00  0.4200E+02  0.4200E+02
    -20.096  0.0000E+00  0.0000E+00  0.4200E+02  0.4200E+02
    -19.925  0.0000E+00  0.0000E+00  0.4200E+02  0.4200E+02
    -19.755  0.0000E+00  0.0000E+00  0.4200E+02  0.4200E+02
    -19.584  0.0000E+00  0.0000E+00  0.4200E+02  0.4200E+02
    -19.413  0.0000E+00  0.0000E+00  0.4200E+02  0.4200E+02
    -19.243  0.0000E+00  0.0000E+00  0.4200E+02  0.4200E+02
    -19.072  0.0000E+00  0.0000E+00  0.4200E+02  0.4200E+02
    -18.901  0.0000E+00  0.0000E+00  0.4200E+02  0.4200E+02
    -18.731  0.0000E+00  0.0000E+00  0.4200E+02  0.4200E+02
    -18.560  0.0000E+00  0.0000E+00  0.4200E+02  0.4200E+02
    -18.390  0.0000E+00  0.0000E+00  0.4200E+02  0.4200E+02
    -18.219  0.0000E+00  0.0000E+00  0.4200E+02  0.4200E+02
    -18.048  0.0000E+00  0.0000E+00  0.4200E+02  0.4200E+02
    -17.878  0.0000E+00  0.0000E+00  0.4200E+02  0.4200E+02
    -17.707  0.0000E+00  0.0000E+00  0.4200E+02  0.4200E+02
    -17.536  0.0000E+00  0.0000E+00  0.4200E+02  0.4200E+02
    -17.366  0.0000E+00  0.0000E+00  0.4200E+02  0.4200E+02
    -17.195  0.0000E+00  0.0000E+00  0.4200E+02  0.4200E+02
    -17.024  0.0000E+00  0.0000E+00  0.4200E+02  0.4200E+02
    -16.854  0.0000E+00  0.0000E+00  0.4200E+02  0.4200E+02
    -16.683  0.0000E+00  0.0000E+00  0.4200E+02  0.4200E+02
    -16.512  0.0000E+00  0.0000E+00  0.4200E+02  0.4200E+02
    -16.342  0.0000E+00  0.0000E+00  0.4200E+02  0.4200E+02
    -16.171  0.0000E+00  0.0000E+00  0.4200E+02  0.4200E+02
    -16.000  0.0000E+00  0.0000E+00  0.4200E+02  0.4200E+02
    -15.830  0.0000E+00  0.0000E+00  0.4200E+02  0.4200E+02
    -15.659  0.0000E+00  0.0000E+00  0.4200E+02  0.4200E+02
    -15.488  0.0000E+00  0.0000E+00  0.4200E+02  0.4200E+02
    -15.318  0.2344E+02  0.2930E+02  0.4600E+02  0.4700E+02
    -15.147  0.5860E+01  0.0000E+00  0.4700E+02  0.4700E+02
    -14.976  0.0000E+00  0.0000E+00  0.4700E+02  0.4700E+02
    -14.806  0.0000E+00  0.0000E+00  0.4700E+02  0.4700E+02
    -14.635  0.0000E+00  0.0000E+00  0.4700E+02  0.4700E+02
    -14.464  0.0000E+00  0.0000E+00  0.4700E+02  0.4700E+02
    -14.294  0.0000E+00  0.0000E+00  0.4700E+02  0.4700E+02
    -14.123  0.0000E+00  0.0000E+00  0.4700E+02  0.4700E+02
    -13.952  0.0000E+00  0.0000E+00  0.4700E+02  0.4700E+02
    -13.782  0.0000E+00  0.0000E+00  0.4700E+02  0.4700E+02
    -13.611  0.0000E+00  0.0000E+00  0.4700E+02  0.4700E+02
    -13.440  0.0000E+00  0.0000E+00  0.4700E+02  0.4700E+02
    -13.270  0.0000E+00  0.0000E+00  0.4700E+02  0.4700E+02
    -13.099  0.0000E+00  0.0000E+00  0.4700E+02  0.4700E+02
    -12.928  0.0000E+00  0.0000E+00  0.4700E+02  0.4700E+02
    -12.758  0.0000E+00  0.0000E+00  0.4700E+02  0.4700E+02
    -12.587  0.0000E+00  0.0000E+00  0.4700E+02  0.4700E+02
    -12.416  0.0000E+00  0.0000E+00  0.4700E+02  0.4700E+02
    -12.246  0.0000E+00  0.0000E+00  0.4700E+02  0.4700E+02
    -12.075  0.0000E+00  0.0000E+00  0.4700E+02  0.4700E+02
    -11.905  0.0000E+00  0.0000E+00  0.4700E+02  0.4700E+02
    -11.734  0.0000E+00  0.0000E+00  0.4700E+02  0.4700E+02
    -11.563  0.0000E+00  0.0000E+00  0.4700E+02  0.4700E+02
    -11.393  0.0000E+00  0.0000E+00  0.4700E+02  0.4700E+02
    -11.222  0.0000E+00  0.0000E+00  0.4700E+02  0.4700E+02
    -11.051  0.0000E+00  0.0000E+00  0.4700E+02  0.4700E+02
    -10.881  0.0000E+00  0.0000E+00  0.4700E+02  0.4700E+02
    -10.710  0.0000E+00  0.0000E+00  0.4700E+02  0.4700E+02
    -10.539  0.0000E+00  0.0000E+00  0.4700E+02  0.4700E+02
    -10.369  0.0000E+00  0.0000E+00  0.4700E+02  0.4700E+02
    -10.198  0.0000E+00  0.0000E+00  0.4700E+02  0.4700E+02
    -10.027  0.0000E+00  0.0000E+00  0.4700E+02  0.4700E+02
     -9.857  0.0000E+00  0.0000E+00  0.4700E+02  0.4700E+02
     -9.686  0.0000E+00  0.0000E+00  0.4700E+02  0.4700E+02
     -9.515  0.0000E+00  0.0000E+00  0.4700E+02  0.4700E+02
     -9.345  0.0000E+00  0.0000E+00  0.4700E+02  0.4700E+02
     -9.174  0.0000E+00  0.0000E+00  0.4700E+02  0.4700E+02
     -9.003  0.0000E+00  0.0000E+00  0.4700E+02  0.4700E+02
     -8.833  0.0000E+00  0.0000E+00  0.4700E+02  0.4700E+02
     -8.662  0.0000E+00  0.0000E+00  0.4700E+02  0.4700E+02
     -8.491  0.0000E+00  0.0000E+00  0.4700E+02  0.4700E+02
     -8.321  0.0000E+00  0.0000E+00  0.4700E+02  0.4700E+02
     -8.150  0.0000E+00  0.0000E+00  0.4700E+02  0.4700E+02
     -7.979  0.0000E+00  0.0000E+00  0.4700E+02  0.4700E+02
     -7.809  0.0000E+00  0.0000E+00  0.4700E+02  0.4700E+02
     -7.638  0.0000E+00  0.0000E+00  0.4700E+02  0.4700E+02
     -7.467  0.0000E+00  0.0000E+00  0.4700E+02  0.4700E+02
     -7.297  0.5860E+01  0.5860E+01  0.4800E+02  0.4800E+02
     -7.126  0.9938E+00  0.0000E+00  0.4802E+02  0.4800E+02
     -6.955  0.1488E+01  0.2228E+01  0.4832E+02  0.4816E+02
     -6.785  0.1736E+01  0.1458E+01  0.4859E+02  0.4842E+02
     -6.614  0.1227E+01  0.1684E+01  0.4886E+02  0.4870E+02
     -6.443  0.1977E+01  0.1299E+01  0.4915E+02  0.4893E+02
     -6.273  0.1608E+01  0.1730E+01  0.4945E+02  0.4923E+02
     -6.102  0.3815E+01  0.1396E+01  0.4986E+02  0.4950E+02
     -5.931  0.3765E+01  0.3705E+01  0.5029E+02  0.4988E+02
     -5.761  0.4167E+01  0.3720E+01  0.5101E+02  0.5040E+02
     -5.590  0.1700E+01  0.3882E+01  0.5153E+02  0.5104E+02
     -5.420  0.3597E+01  0.1524E+01  0.5198E+02  0.5153E+02
     -5.249  0.3621E+01  0.3242E+01  0.5259E+02  0.5197E+02
     -5.078  0.8803E+01  0.3233E+01  0.5365E+02  0.5253E+02
     -4.908  0.5148E+01  0.7153E+01  0.5429E+02  0.5351E+02
     -4.737  0.3659E+01  0.3005E+01  0.5521E+02  0.5410E+02
     -4.566  0.5254E+01  0.5961E+01  0.5598E+02  0.5482E+02
     -4.396  0.1044E+02  0.3246E+01  0.5745E+02  0.5552E+02
     -4.225  0.8928E+01  0.5584E+01  0.5883E+02  0.5607E+02
     -4.054  0.1759E+02  0.9849E+01  0.6119E+02  0.5776E+02
     -3.884  0.2734E+02  0.6287E+01  0.6448E+02  0.5891E+02
     -3.713  0.5157E+02  0.8298E+01  0.6943E+02  0.6024E+02
     -3.542  0.6227E+02  0.6741E+01  0.7548E+02  0.6123E+02
     -3.372  0.7216E+02  0.1525E+02  0.8188E+02  0.6270E+02
     -3.201  0.9572E+02  0.1763E+02  0.9085E+02  0.6541E+02
     -3.030  0.9014E+02  0.2496E+02  0.9928E+02  0.6868E+02
     -2.860  0.7178E+02  0.3221E+02  0.1062E+03  0.7168E+02
     -2.689  0.1008E+03  0.3194E+02  0.1139E+03  0.7572E+02
     -2.518  0.1402E+03  0.2882E+02  0.1264E+03  0.7896E+02
     -2.348  0.1325E+03  0.4274E+02  0.1397E+03  0.8347E+02
     -2.177  0.1055E+03  0.4455E+02  0.1510E+03  0.8836E+02
     -2.006  0.1081E+03  0.4048E+02  0.1622E+03  0.9373E+02
     -1.836  0.1544E+03  0.5891E+02  0.1738E+03  0.9944E+02
     -1.665  0.1357E+03  0.6609E+02  0.1854E+03  0.1057E+03
     -1.494  0.7908E+02  0.7625E+02  0.1970E+03  0.1121E+03
     -1.324  0.1480E+03  0.7798E+02  0.2078E+03  0.1198E+03
     -1.153  0.7812E+02  0.9834E+02  0.2162E+03  0.1284E+03
     -0.982  0.8282E+02  0.1052E+03  0.2246E+03  0.1368E+03
     -0.812  0.9418E+02  0.1031E+03  0.2336E+03  0.1460E+03
     -0.641  0.1335E+03  0.1175E+03  0.2438E+03  0.1559E+03
     -0.470  0.1224E+03  0.1045E+03  0.2571E+03  0.1668E+03
     -0.300  0.1900E+03  0.1444E+03  0.2731E+03  0.1779E+03
     -0.129  0.1433E+03  0.1206E+03  0.2879E+03  0.1885E+03
      0.042  0.1074E+03  0.9394E+02  0.2994E+03  0.1980E+03
      0.212  0.9014E+02  0.5359E+02  0.3080E+03  0.2050E+03
      0.383  0.6710E+02  0.5293E+02  0.3162E+03  0.2107E+03
      0.554  0.8340E+02  0.4262E+02  0.3236E+03  0.2150E+03
      0.724  0.9062E+02  0.7497E+02  0.3310E+03  0.2204E+03
      0.895  0.5561E+02  0.5707E+02  0.3362E+03  0.2259E+03
      1.066  0.4415E+02  0.8874E+02  0.3413E+03  0.2327E+03
      1.236  0.5797E+02  0.7836E+02  0.3471E+03  0.2414E+03
      1.407  0.5847E+02  0.1080E+03  0.3536E+03  0.2511E+03
      1.577  0.6837E+02  0.1143E+03  0.3601E+03  0.2616E+03
      1.748  0.7057E+02  0.1232E+03  0.3666E+03  0.2737E+03
      1.919  0.2844E+02  0.1069E+03  0.3720E+03  0.2852E+03
      2.089  0.0000E+00  0.1495E+03  0.3720E+03  0.2988E+03
      2.260  0.0000E+00  0.1873E+03  0.3720E+03  0.3140E+03
      2.431  0.0000E+00  0.1714E+03  0.3720E+03  0.3296E+03
      2.601  0.0000E+00  0.1515E+03  0.3720E+03  0.3465E+03
      2.772  0.0000E+00  0.9628E+02  0.3720E+03  0.3580E+03
      2.943  0.0000E+00  0.6826E+02  0.3720E+03  0.3658E+03
      3.113  0.0000E+00  0.7141E+02  0.3720E+03  0.3713E+03
      3.284  0.0000E+00  0.1099E+01  0.3720E+03  0.3720E+03
      3.455  0.0000E+00  0.0000E+00  0.3720E+03  0.3720E+03
      3.625  0.0000E+00  0.0000E+00  0.3720E+03  0.3720E+03
      3.796  0.0000E+00  0.0000E+00  0.3720E+03  0.3720E+03
      3.967  0.0000E+00  0.0000E+00  0.3720E+03  0.3720E+03
      4.137  0.0000E+00  0.0000E+00  0.3720E+03  0.3720E+03
      4.308  0.0000E+00  0.0000E+00  0.3720E+03  0.3720E+03
      4.479  0.0000E+00  0.0000E+00  0.3720E+03  0.3720E+03
      4.649  0.0000E+00  0.0000E+00  0.3720E+03  0.3720E+03
      4.820  0.0000E+00  0.0000E+00  0.3720E+03  0.3720E+03
      4.991  0.0000E+00  0.0000E+00  0.3720E+03  0.3720E+03
      5.161  0.0000E+00  0.0000E+00  0.3720E+03  0.3720E+03
      5.332  0.0000E+00  0.0000E+00  0.3720E+03  0.3720E+03
      5.503  0.0000E+00  0.0000E+00  0.3720E+03  0.3720E+03
