       N       E                     dE             d eps       ncg     rms          rms(c)
DAV:   1     0.560752126190E+04    0.56075E+04   -0.24147E+05 15808   0.144E+03
DAV:   2    -0.622727828616E+02   -0.56698E+04   -0.54705E+04 14880   0.423E+02
DAV:   3    -0.521448995580E+03   -0.45918E+03   -0.40805E+03 15332   0.163E+02
DAV:   4    -0.579657332759E+03   -0.58208E+02   -0.54315E+02 26120   0.449E+01
DAV:   5    -0.583064075919E+03   -0.34067E+01   -0.32104E+01 24528   0.107E+01    0.936E+01
DAV:   6    -0.726043150568E+03   -0.14298E+03   -0.31683E+02 27040   0.874E+01    0.151E+02
DAV:   7    -0.689909605081E+03    0.36134E+02   -0.36250E+02 27552   0.115E+02    0.147E+02
DAV:   8    -0.552072517749E+03    0.13784E+03   -0.17636E+02 27208   0.788E+01    0.899E+01
DAV:   9    -0.531166010081E+03    0.20907E+02   -0.72774E+01 25624   0.380E+01    0.690E+01
DAV:  10    -0.516795001605E+03    0.14371E+02   -0.45479E+01 24424   0.274E+01    0.616E+01
DAV:  11    -0.498572713103E+03    0.18222E+02   -0.73723E+01 21696   0.326E+01    0.492E+01
DAV:  12    -0.492648085499E+03    0.59246E+01   -0.33917E+01 21376   0.214E+01    0.361E+01
DAV:  13    -0.492752118862E+03   -0.10403E+00   -0.56595E+00 20656   0.972E+00    0.344E+01
DAV:  14    -0.492568399395E+03    0.18372E+00   -0.92289E-01 23640   0.299E+00    0.356E+01
DAV:  15    -0.493062082948E+03   -0.49368E+00   -0.21526E-01 25408   0.156E+00    0.359E+01
DAV:  16    -0.495424691635E+03   -0.23626E+01   -0.27335E+00 26304   0.604E+00    0.328E+01
DAV:  17    -0.498753033059E+03   -0.33283E+01   -0.46481E+00 24752   0.775E+00    0.271E+01
DAV:  18    -0.501542591751E+03   -0.27896E+01   -0.63887E+00 25944   0.931E+00    0.256E+01
DAV:  19    -0.501939655877E+03   -0.39706E+00   -0.17384E+00 22424   0.427E+00    0.225E+01
DAV:  20    -0.502701303114E+03   -0.76165E+00   -0.69942E-01 25096   0.277E+00    0.224E+01
DAV:  21    -0.502827890177E+03   -0.12659E+00   -0.72220E-01 25728   0.319E+00    0.193E+01
DAV:  22    -0.502874008423E+03   -0.46118E-01   -0.75143E-01 26024   0.373E+00    0.164E+01
DAV:  23    -0.502768305474E+03    0.10570E+00   -0.10117E+00 26064   0.468E+00    0.138E+01
DAV:  24    -0.502789032457E+03   -0.20727E-01   -0.33786E-01 23976   0.200E+00    0.127E+01
DAV:  25    -0.502905615247E+03   -0.11658E+00   -0.16777E-01 25576   0.165E+00    0.118E+01
DAV:  26    -0.503288926448E+03   -0.38331E+00   -0.68409E-01 26560   0.288E+00    0.100E+01
DAV:  27    -0.503629197560E+03   -0.34027E+00   -0.11457E+00 26152   0.323E+00    0.820E+00
DAV:  28    -0.503844773499E+03   -0.21558E+00   -0.84456E-01 25160   0.293E+00    0.651E+00
DAV:  29    -0.503981607710E+03   -0.13683E+00   -0.30782E-01 24904   0.188E+00    0.595E+00
DAV:  30    -0.504029026373E+03   -0.47419E-01   -0.40498E-01 25864   0.185E+00    0.469E+00
DAV:  31    -0.504036466196E+03   -0.74398E-02   -0.11645E-01 23800   0.105E+00    0.409E+00
DAV:  32    -0.504034120590E+03    0.23456E-02   -0.43752E-02 25528   0.884E-01    0.342E+00
DAV:  33    -0.504052080609E+03   -0.17960E-01   -0.85993E-02 25584   0.983E-01    0.280E+00
DAV:  34    -0.504061650570E+03   -0.95700E-02   -0.37295E-02 24328   0.604E-01    0.246E+00
DAV:  35    -0.504071778926E+03   -0.10128E-01   -0.19541E-02 26248   0.588E-01    0.222E+00
DAV:  36    -0.504080013520E+03   -0.82346E-02   -0.15459E-02 25672   0.434E-01    0.202E+00
DAV:  37    -0.504089277920E+03   -0.92644E-02   -0.12176E-02 25360   0.316E-01    0.194E+00
DAV:  38    -0.504090744255E+03   -0.14663E-02   -0.16822E-03 18432   0.126E-01    0.193E+00
DAV:  39    -0.504095722669E+03   -0.49784E-02   -0.25405E-03 26328   0.113E-01    0.195E+00
DAV:  40    -0.504082553706E+03    0.13169E-01   -0.11444E-02 26232   0.250E-01    0.195E+00
DAV:  41    -0.504069706464E+03    0.12847E-01   -0.20794E-02 25872   0.297E-01    0.189E+00
DAV:  42    -0.504057342902E+03    0.12364E-01   -0.67844E-02 26176   0.629E-01    0.173E+00
DAV:  43    -0.504052112479E+03    0.52304E-02   -0.16916E-02 24864   0.432E-01    0.147E+00
DAV:  44    -0.504044530908E+03    0.75816E-02   -0.38197E-02 26344   0.439E-01    0.123E+00
DAV:  45    -0.504048638221E+03   -0.41073E-02   -0.15311E-02 25544   0.360E-01    0.121E+00
DAV:  46    -0.504046681474E+03    0.19567E-02   -0.77505E-03 25032   0.389E-01    0.901E-01
DAV:  47    -0.504046569358E+03    0.11212E-03   -0.78219E-03 25616   0.286E-01    0.659E-01
DAV:  48    -0.504047401462E+03   -0.83210E-03   -0.36694E-03 24728   0.188E-01    0.502E-01
DAV:  49    -0.504047909420E+03   -0.50796E-03   -0.24605E-03 26088   0.143E-01    0.385E-01
DAV:  50    -0.504048201091E+03   -0.29167E-03   -0.12626E-03 25128   0.117E-01    0.307E-01
DAV:  51    -0.504048553021E+03   -0.35193E-03   -0.13154E-03 26112   0.129E-01    0.254E-01
DAV:  52    -0.504048588885E+03   -0.35864E-04   -0.82985E-04 24040   0.972E-02    0.177E-01
DAV:  53    -0.504048685086E+03   -0.96201E-04   -0.30953E-04 24672   0.498E-02    0.157E-01
DAV:  54    -0.504048770354E+03   -0.85268E-04   -0.32334E-04 25496   0.708E-02    0.103E-01
DAV:  55    -0.504048823431E+03   -0.53077E-04   -0.20549E-04 23592   0.402E-02    0.901E-02
DAV:  56    -0.504048854354E+03   -0.30923E-04   -0.61201E-05 17712   0.260E-02    0.748E-02
DAV:  57    -0.504048867527E+03   -0.13172E-04   -0.72425E-05 16576   0.339E-02    0.487E-02
DAV:  58    -0.504048887445E+03   -0.19918E-04   -0.82783E-05 17912   0.215E-02    0.448E-02
DAV:  59    -0.504048894343E+03   -0.68982E-05   -0.11374E-05  9576   0.994E-03
   1 F= -.50404889E+03 E0= -.50404889E+03  d E =0.000000E+00  mag=   109.6275
