 vasp.6.3.2 27Jun22 (build Mar 15 2023 15:45:48) complex                        
  
 executed on             LinuxIFC date 2025.02.10  23:37:06
 running on    4 total cores
 distrk:  each k-point on    4 cores,    1 groups
 distr:  one band on NCORE=   1 cores,    4 groups


--------------------------------------------------------------------------------------------------------


 INCAR:
   SYSTEM = ni3al
   PREC = Accurate
   EDIFF = 1E-5
   ISTART = 0
   ICHARG = 2
   LREAL = Auto
   NSW = 0
   ISIF = 2
   IBRION = -1
   ISMEAR = -5
   SIGMA = 0.1
   ENCUT = 450
   ALGO = Normal
   LMAXMIX = 4
   AMIN = 0.01
   NELM = 150
   LCHARG = .T.
   LWAVE = .T.
   ISPIN = 2
   NCORE = 4
   LELF = .T.
   LDIPOL = .TRUE.
   IDIPOL = 3
   AMIX = 0.05
   BMIX = 0.0001
   IMIX = 4

 POTCAR:    PAW_PBE Fe 06Sep2000                  
 POTCAR:    PAW_PBE Cr_pv 02Aug2007               
 POTCAR:    PAW_PBE Pb_d 06Sep2000                
 -----------------------------------------------------------------------------
|                                                                             |
|           W    W    AA    RRRRR   N    N  II  N    N   GGGG   !!!           |
|           W    W   A  A   R    R  NN   N  II  NN   N  G    G  !!!           |
|           W    W  A    A  R    R  N N  N  II  N N  N  G       !!!           |
|           W WW W  AAAAAA  RRRRR   N  N N  II  N  N N  G  GGG   !            |
|           WW  WW  A    A  R   R   N   NN  II  N   NN  G    G                |
|           W    W  A    A  R    R  N    N  II  N    N   GGGG   !!!           |
|                                                                             |
|     You use a magnetic or noncollinear calculation, but did not specify     |
|     the initial magnetic moment with the MAGMOM tag. Note that a            |
|     default of 1 will be used for all atoms. This ferromagnetic setup       |
|     may break the symmetry of the crystal, in particular it may rule        |
|     out finding an antiferromagnetic solution. Thence, we recommend         |
|     setting the initial magnetic moment manually or verifying carefully     |
|     that this magnetic setup is desired.                                    |
|                                                                             |
 -----------------------------------------------------------------------------

 POTCAR:    PAW_PBE Fe 06Sep2000                  
   VRHFIN =Fe:  d7 s1                                                                               
   LEXCH  = PE                                                                                      
   EATOM  =   594.3153 eV,   43.6809 Ry                                                             
                                                                                                    
   TITEL  = PAW_PBE Fe 06Sep2000                                                                    
   LULTRA =        F    use ultrasoft PP ?                                                          
   IUNSCR =        1    unscreen: 0-lin 1-nonlin 2-no                                               
   RPACOR =    2.000    partial core radius                                                         
   POMASS =   55.847; ZVAL   =    8.000    mass and valenz                                          
   RCORE  =    2.300    outmost cutoff radius                                                       
   RWIGS  =    2.460; RWIGS  =    1.302    wigner-seitz radius (au A)                               
   ENMAX  =  267.882; ENMIN  =  200.911 eV                                                          
   RCLOC  =    1.701    cutoff for local pot                                                        
   LCOR   =        T    correct aug charges                                                         
   LPAW   =        T    paw PP                                                                      
   EAUG   =  511.368                                                                                
   DEXC   =    0.000                                                                                
   RMAX   =    2.356    core radius for proj-oper                                                   
   RAUG   =    1.300    factor for augmentation sphere                                              
   RDEP   =    2.442    radius for radial grids                                                     
   RDEPT  =    1.890    core radius for aug-charge                                                  
                                                                                                    
   Atomic configuration                                                                             
    9 entries                                                                                       
     n  l   j            E        occ.                                                              
     1  0  0.50     -6993.8440   2.0000                                                             
     2  0  0.50      -814.6047   2.0000                                                             
     2  1  1.50      -693.3689   6.0000                                                             
     3  0  0.50       -89.4732   2.0000                                                             
     3  1  1.50       -55.6373   6.0000                                                             
     3  2  2.50        -3.8151   7.0000                                                             
     4  0  0.50        -4.2551   1.0000                                                             
     4  1  1.50        -3.4015   0.0000                                                             
     4  3  2.50        -1.3606   0.0000                                                             
   Description                                                                                      
     l       E           TYP  RCUT    TYP  RCUT                                                     
     2     -3.8151135     23  2.300                                                                 
     2     -5.1756961     23  2.300                                                                 
     0     -4.2550963     23  2.300                                                                 
     0      7.2035603     23  2.300                                                                 
     1     -2.7211652     23  2.300                                                                 
     1     18.4316424     23  2.300                                                                 
  local pseudopotential read in
  partial core-charges read in
  partial kinetic energy density read in
  atomic valenz-charges read in
  non local Contribution for L=           2  read in
    real space projection operators read in
  non local Contribution for L=           2  read in
    real space projection operators read in
  non local Contribution for L=           0  read in
    real space projection operators read in
  non local Contribution for L=           0  read in
    real space projection operators read in
  non local Contribution for L=           1  read in
    real space projection operators read in
  non local Contribution for L=           1  read in
    real space projection operators read in
    PAW grid and wavefunctions read in
 
   number of l-projection  operators is LMAX  =           6
   number of lm-projection operators is LMMAX =          18
 
 POTCAR:    PAW_PBE Cr_pv 02Aug2007               
   VRHFIN =Cr : p6d5s1                                                                              
   LEXCH  = PE                                                                                      
   EATOM  =  1647.9177 eV,  121.1185 Ry                                                             
                                                                                                    
   TITEL  = PAW_PBE Cr_pv 02Aug2007                                                                 
   LULTRA =        F    use ultrasoft PP ?                                                          
   IUNSCR =        1    unscreen: 0-lin 1-nonlin 2-no                                               
   RPACOR =    2.080    partial core radius                                                         
   POMASS =   51.996; ZVAL   =   12.000    mass and valenz                                          
   RCORE  =    2.300    outmost cutoff radius                                                       
   RWIGS  =    2.500; RWIGS  =    1.323    wigner-seitz radius (au A)                               
   ENMAX  =  265.681; ENMIN  =  199.261 eV                                                          
   ICORE  =        3    local potential                                                             
   LCOR   =        T    correct aug charges                                                         
   LPAW   =        T    paw PP                                                                      
   EAUG   =  519.424                                                                                
   DEXC   =    0.000                                                                                
   RMAX   =    2.356    core radius for proj-oper                                                   
   RAUG   =    1.300    factor for augmentation sphere                                              
   RDEP   =    2.447    radius for radial grids                                                     
   RDEPT  =    1.882    core radius for aug-charge                                                  
                                                                                                    
   Atomic configuration                                                                             
    8 entries                                                                                       
     n  l   j            E        occ.                                                              
     1  0  0.50     -5880.4963   2.0000                                                             
     2  0  0.50      -667.0865   2.0000                                                             
     2  1  1.50      -560.6250   6.0000                                                             
     3  0  0.50       -73.9860   2.0000                                                             
     3  1  1.50       -45.4378   6.0000                                                             
     3  2  2.50        -2.9137   5.0000                                                             
     4  0  0.50        -4.0071   1.0000                                                             
     4  3  2.50        -1.3606   0.0000                                                             
   Description                                                                                      
     l       E           TYP  RCUT    TYP  RCUT                                                     
     1    -45.4377911     23  2.000                                                                 
     1      1.3605826     23  2.000                                                                 
     2     -2.9136672     23  2.300                                                                 
     2     -4.2742498     23  2.300                                                                 
     0     -4.0071320     23  2.300                                                                 
     0      9.4498803     23  2.300                                                                 
     3      2.7211652     23  2.300                                                                 
  local pseudopotential read in
  partial core-charges read in
  partial kinetic energy density read in
  atomic valenz-charges read in
  non local Contribution for L=           1  read in
    real space projection operators read in
  non local Contribution for L=           1  read in
    real space projection operators read in
  non local Contribution for L=           2  read in
    real space projection operators read in
  non local Contribution for L=           2  read in
    real space projection operators read in
  non local Contribution for L=           0  read in
    real space projection operators read in
  non local Contribution for L=           0  read in
    real space projection operators read in
    PAW grid and wavefunctions read in
 
   number of l-projection  operators is LMAX  =           6
   number of lm-projection operators is LMMAX =          18
 
 POTCAR:    PAW_PBE Pb_d 06Sep2000                
   VRHFIN =Pb:                                                                                      
   LEXCH  = PE                                                                                      
   EATOM  =  1661.6185 eV,  122.1255 Ry                                                             
                                                                                                    
   TITEL  = PAW_PBE Pb_d 06Sep2000                                                                  
   LULTRA =        F    use ultrasoft PP ?                                                          
   IUNSCR =        1    unscreen: 0-lin 1-nonlin 2-no                                               
   RPACOR =    2.200    partial core radius                                                         
   POMASS =  207.200; ZVAL   =   14.000    mass and valenz                                          
   RCORE  =    2.500    outmost cutoff radius                                                       
   RWIGS  =    3.260; RWIGS  =    1.725    wigner-seitz radius (au A)                               
   ENMAX  =  237.835; ENMIN  =  178.376 eV                                                          
   ICORE  =        3    local potential                                                             
   LCOR   =        T    correct aug charges                                                         
   LPAW   =        T    paw PP                                                                      
   EAUG   =  391.914                                                                                
   DEXC   =    0.000                                                                                
   RMAX   =    2.565    core radius for proj-oper                                                   
   RAUG   =    1.300    factor for augmentation sphere                                              
   RDEP   =    2.643    radius for radial grids                                                     
   RDEPT  =    2.092    core radius for aug-charge                                                  
                                                                                                    
   Atomic configuration                                                                             
   16 entries                                                                                       
     n  l   j            E        occ.                                                              
     1  0  0.50    -88091.8466   2.0000                                                             
     2  0  0.50    -15753.4197   2.0000                                                             
     2  1  1.50    -13508.1797   6.0000                                                             
     3  0  0.50     -3781.7194   2.0000                                                             
     3  1  1.50     -3138.2529   6.0000                                                             
     3  2  2.50     -2483.2977  10.0000                                                             
     4  0  0.50      -856.2895   2.0000                                                             
     4  1  1.50      -645.4942   6.0000                                                             
     4  2  2.50      -401.8768  10.0000                                                             
     4  3  3.50      -132.9059  14.0000                                                             
     5  0  0.50      -144.0950   2.0000                                                             
     5  1  1.50       -85.7879   6.0000                                                             
     5  2  2.50       -21.1769  10.0000                                                             
     6  0  0.50       -12.0372   2.0000                                                             
     6  1  1.50        -3.4971   2.0000                                                             
     5  3  2.50        -2.7212   0.0000                                                             
   Description                                                                                      
     l       E           TYP  RCUT    TYP  RCUT                                                     
     2    -21.1768523     23  2.500                                                                 
     2      1.3605826     23  2.500                                                                 
     0    -12.0371562     23  2.500                                                                 
     0     13.6058260     23  2.500                                                                 
     1     -3.4971339     23  2.500                                                                 
     1     13.6058260     23  2.500                                                                 
     3     -1.3605826      7  2.500                                                                 
  local pseudopotential read in
  partial core-charges read in
  partial kinetic energy density read in
  atomic valenz-charges read in
  non local Contribution for L=           2  read in
    real space projection operators read in
  non local Contribution for L=           2  read in
    real space projection operators read in
  non local Contribution for L=           0  read in
    real space projection operators read in
  non local Contribution for L=           0  read in
    real space projection operators read in
  non local Contribution for L=           1  read in
    real space projection operators read in
  non local Contribution for L=           1  read in
    real space projection operators read in
    PAW grid and wavefunctions read in
 
   number of l-projection  operators is LMAX  =           6
   number of lm-projection operators is LMMAX =          18
 
 Optimization of the real space projectors (new method)

 maximal supplied QI-value         = 16.25
 optimisation between [QCUT,QGAM] = [ 10.73, 21.61] = [ 32.22,130.83] Ry 
 Optimized for a Real-space Cutoff    1.42 Angstroem

   l    n(q)    QCUT    max X(q) W(low)/X(q) W(high)/X(q)  e(spline) 
   2      8    10.726    80.901    0.24E-03    0.41E-03    0.22E-06
   2      8    10.726    75.754    0.24E-03    0.41E-03    0.23E-06
   0      9    10.726    58.752    0.21E-03    0.17E-03    0.42E-07
   0      9    10.726    30.679    0.19E-03    0.16E-03    0.39E-07
   1      9    10.726    17.977    0.20E-03    0.14E-03    0.16E-06
   1      9    10.726    13.559    0.17E-03    0.11E-03    0.13E-06
 Optimization of the real space projectors (new method)

 maximal supplied QI-value         = 16.25
 optimisation between [QCUT,QGAM] = [ 10.73, 21.61] = [ 32.22,130.83] Ry 
 Optimized for a Real-space Cutoff    1.51 Angstroem

   l    n(q)    QCUT    max X(q) W(low)/X(q) W(high)/X(q)  e(spline) 
   1      9    10.726     3.262    0.86E-04    0.42E-04    0.11E-06
   1      9    10.726     5.741    0.19E-03    0.70E-04    0.20E-06
   2      9    10.726    60.438    0.11E-03    0.51E-04    0.13E-06
   2      9    10.726    55.380    0.12E-03    0.51E-04    0.13E-06
   0     10    10.726    80.273    0.42E-04    0.15E-05    0.77E-07
   0     10    10.726    36.654    0.34E-04    0.84E-06    0.69E-07
 Optimization of the real space projectors (new method)

 maximal supplied QI-value         = 15.12
 optimisation between [QCUT,QGAM] = [ 10.73, 21.62] = [ 32.26,130.87] Ry 
 Optimized for a Real-space Cutoff    1.42 Angstroem

   l    n(q)    QCUT    max X(q) W(low)/X(q) W(high)/X(q)  e(spline) 
   2      8    10.734     3.846    0.11E-03    0.12E-04    0.36E-07
   2      8    10.734     8.593    0.24E-03    0.21E-03    0.13E-06
   0      9    10.734    20.082    0.65E-04    0.10E-03    0.71E-07
   0      9    10.734     8.597    0.91E-04    0.14E-03    0.10E-06
   1      9    10.734    33.223    0.24E-03    0.75E-04    0.13E-06
   1      9    10.734    15.899    0.21E-03    0.70E-04    0.12E-06
  PAW_PBE Fe 06Sep2000                  :
 energy of atom  1       EATOM= -594.3153
 kinetic energy error for atom=    0.0034 (will be added to EATOM!!)
  PAW_PBE Cr_pv 02Aug2007               :
 energy of atom  2       EATOM=-1647.9177
 kinetic energy error for atom=    0.0115 (will be added to EATOM!!)
  PAW_PBE Pb_d 06Sep2000                :
 energy of atom  3       EATOM=-1661.6185
 kinetic energy error for atom=    0.0063 (will be added to EATOM!!)
 
 
 POSCAR: Generated by VASPKIT code
  positions in direct lattice
  velocities in cartesian coordinates
 exchange correlation table for  LEXCH =        8
   RHO(1)=    0.500       N(1)  =     2000
   RHO(2)=  100.500       N(2)  =     4000

 VTST: version 4.2, (08/11/21)

 CHAIN: initializing optimizer
 
 OPT: Using VASP Dynamics algorithm
 CHAIN: Read ICHAIN            0
 
 POSCAR: Generated by VASPKIT code
  positions in direct lattice
  velocities in cartesian coordinates
 


--------------------------------------------------------------------------------------------------------


 ion  position               nearest neighbor table
   1  0.001  1.000  0.243-  13 2.44   5 2.44  48 2.45   2 2.45  38 2.45  44 2.46  35 2.47  11 2.49
                            15 2.78  51 2.83   4 2.84  34 2.84   6 2.85  49 2.86
   2  0.166  0.167  0.303-  15 2.40  22 2.40  18 2.41   1 2.45   6 2.46   8 2.47  49 2.47  57 2.48
                             5 2.82  35 2.84   3 2.85  11 2.85   7 2.87
   3  0.499  0.161  0.302-  49 2.40  18 2.42   4 2.42  55 2.44   8 2.47  57 2.48  50 2.49  59 2.53
                            52 2.77  37 2.82   2 2.85   5 2.87   9 2.92  63 3.42
   4  0.668  0.001  0.243-   3 2.42   5 2.44  38 2.44  37 2.45  48 2.45  13 2.46  46 2.46  52 2.50
                            53 2.78  55 2.81  50 2.82  60 2.84   1 2.84  49 2.84
   5  0.836  0.168  0.302-  15 2.43   1 2.44   6 2.44  22 2.44  50 2.44   4 2.44  55 2.52  59 2.53
                            38 2.80   2 2.82  10 2.83  13 2.85   3 2.87
   6  0.000  0.335  0.242-   5 2.44  10 2.44  35 2.46  38 2.46  39 2.46   2 2.46  42 2.47   7 2.50
                            22 2.76  51 2.82  61 2.83  50 2.84   1 2.85   8 2.85
   7  0.169  0.504  0.304-  22 2.41  27 2.43  12 2.43  51 2.45  57 2.46   8 2.49   6 2.50  11 2.78
                             9 2.81  10 2.86  39 2.87   2 2.87
   8  0.335  0.333  0.243-  39 2.45  37 2.45  35 2.46  40 2.46   2 2.47   3 2.47   9 2.47   7 2.49
                            12 2.83  57 2.83  62 2.83  49 2.84  50 2.84   6 2.85
   9  0.498  0.505  0.303-  32 2.39  12 2.42  57 2.44  53 2.46   8 2.47  50 2.51  59 2.54  52 2.81
                             7 2.81  40 2.82  10 2.86   3 2.92
  10  0.834  0.501  0.301-  27 2.40  32 2.41  22 2.44   6 2.44  50 2.45  51 2.47  53 2.47  59 2.55
                            42 2.80  13 2.82   5 2.83   9 2.86   7 2.86
  11  0.168  0.831  0.304-  18 2.43  15 2.44  27 2.45  51 2.45  12 2.46  49 2.47   1 2.49   7 2.78
                            52 2.79  13 2.84   2 2.85  44 2.87
  12  0.333  0.666  0.243-   9 2.42   7 2.43  40 2.45  39 2.45  44 2.46  11 2.46  52 2.47  46 2.47
                            51 2.81   8 2.83  49 2.83  53 2.83  45 2.84
  13  0.836  0.833  0.302-  27 2.41  53 2.42  32 2.42   1 2.44  51 2.45  55 2.45  15 2.46   4 2.46
                            48 2.80  10 2.82  11 2.84   5 2.85  52 2.91
  14  0.001  0.001  0.002-  20 2.46  33 2.46  28 2.46  16 2.48  26 2.83  21 2.83  34 2.84  17 2.85
                            54 2.85
  15  0.002  0.004  0.361-   2 2.40   5 2.43  11 2.44  13 2.46   1 2.78  18 2.80  22 2.82  55 2.88
                            27 2.88
  16  0.168  0.170  0.063-  62 2.44  36 2.45  56 2.45  17 2.46  34 2.46  61 2.46  21 2.46  14 2.48
                            23 2.80  35 2.82  28 2.85  20 2.86  19 2.87
  17  0.335  0.003  0.003-  19 2.45  16 2.46  30 2.46  28 2.46  56 2.81  36 2.82  54 2.83  14 2.85
                            29 2.86
  18  0.329  0.004  0.362-   2 2.41   3 2.42  11 2.43  52 2.44  63 2.75  49 2.79  15 2.80  57 2.81
                            55 2.86
  19  0.505  0.169  0.061-  58 2.43  41 2.45  17 2.45  60 2.46  62 2.47  54 2.47  56 2.48  36 2.48
                            20 2.80  24 2.81  30 2.83  37 2.87  16 2.87
  20  0.833  0.167  0.062-  58 2.43  14 2.46  60 2.46  41 2.46  21 2.46  61 2.46  34 2.46  54 2.50
                            19 2.80  33 2.81  25 2.85  38 2.85  16 2.86
  21  0.000  0.335  0.002-  23 2.46  25 2.46  20 2.46  16 2.46  58 2.81  26 2.83  14 2.83  56 2.83
                            61 2.84
  22  0.003  0.336  0.360-   2 2.40   7 2.41  10 2.44   5 2.44   6 2.76  27 2.80  15 2.82  57 2.84
                            59 2.89
  23  0.168  0.499  0.063-  61 2.45  21 2.46  56 2.46  45 2.46  43 2.46  62 2.47  29 2.47  26 2.48
                            16 2.80  39 2.82  24 2.85  25 2.85  28 2.85
  24  0.501  0.499  0.062-  58 2.43  41 2.45  62 2.45  29 2.46  45 2.46  31 2.47  56 2.47  47 2.47
                            19 2.81  25 2.84  23 2.85  40 2.86  30 2.86
  25  0.834  0.502  0.062-  58 2.42  61 2.45  31 2.45  43 2.46  47 2.46  26 2.46  21 2.46  41 2.46
                            33 2.83  24 2.84  42 2.84  23 2.85  20 2.85
  26  0.001  0.668  0.002-  25 2.46  28 2.46  23 2.48  33 2.48  21 2.83  14 2.83  29 2.84  43 2.85
                            31 2.85
  27  0.994  0.665  0.361-  10 2.40  13 2.41   7 2.43  11 2.45  32 2.78  22 2.80  51 2.80  15 2.88

  28  0.168  0.835  0.062-  34 2.45  36 2.46  43 2.46  45 2.46  17 2.46  29 2.46  26 2.46  14 2.46
                            44 2.83  16 2.85  30 2.85  23 2.85  33 2.86
  29  0.334  0.667  0.002-  24 2.46  28 2.46  23 2.47  30 2.47  56 2.83  45 2.83  31 2.84  26 2.84
                            17 2.86
  30  0.502  0.836  0.062-  60 2.44  54 2.45  36 2.45  17 2.46  47 2.46  31 2.47  45 2.47  29 2.47
                            33 2.83  19 2.83  46 2.85  28 2.85  24 2.86
  31  0.668  0.667  0.002-  25 2.45  24 2.47  30 2.47  33 2.47  54 2.80  58 2.81  29 2.84  26 2.85
                            47 2.85
  32  0.668  0.666  0.359-   9 2.39  10 2.41  13 2.42  52 2.43  53 2.73  27 2.78  55 2.79  59 2.85

  33  0.833  0.836  0.062-  60 2.44  34 2.46  47 2.46  14 2.46  54 2.46  31 2.47  43 2.47  26 2.48
                            20 2.81  30 2.83  25 2.83  48 2.85  28 2.86
  34  0.001  0.001  0.122-  28 2.45  33 2.46  35 2.46  38 2.46  44 2.46  16 2.46  20 2.46  48 2.47
                            43 2.83  14 2.84  61 2.84   1 2.84  36 2.85  60 2.85
  35  0.167  0.168  0.182-  34 2.46   8 2.46   6 2.46  62 2.46  36 2.46   1 2.47  61 2.47  49 2.49
                            39 2.81  16 2.82  44 2.83   2 2.84  38 2.84  37 2.86
  36  0.335  0.002  0.122-  16 2.45  30 2.45  28 2.46  37 2.46  44 2.46  46 2.46  35 2.46  19 2.48
                            62 2.81  17 2.82  60 2.84  34 2.85  45 2.85  49 2.87
  37  0.502  0.167  0.183-  62 2.44  50 2.44   4 2.45   8 2.45  60 2.46  41 2.46  36 2.46  49 2.47
                            46 2.82   3 2.82  40 2.84  38 2.84  35 2.86  19 2.87
  38  0.834  0.166  0.183-  50 2.44   4 2.44   1 2.45   6 2.46  61 2.46  34 2.46  60 2.46  41 2.47
                             5 2.80  48 2.82  37 2.84  35 2.84  20 2.85  42 2.86
  39  0.170  0.499  0.182-  62 2.45  12 2.45   8 2.45  45 2.45   6 2.46  51 2.46  61 2.46  43 2.47
                            35 2.81  23 2.82  40 2.84  44 2.86   7 2.87  42 2.89
  40  0.502  0.501  0.183-  50 2.45  12 2.45   8 2.46  47 2.46  41 2.46  62 2.47  53 2.47  45 2.47
                            42 2.81   9 2.82  37 2.84  39 2.84  46 2.84  24 2.86
  41  0.667  0.334  0.122-  19 2.45  24 2.45  37 2.46  20 2.46  42 2.46  40 2.46  25 2.46  38 2.47
                            58 2.81  61 2.82  62 2.82  50 2.83  60 2.84  47 2.84
  42  0.831  0.503  0.183-  47 2.44  50 2.45  41 2.46   6 2.47  61 2.47  43 2.47  51 2.47  53 2.48
                            10 2.80  40 2.81  48 2.82  25 2.84  38 2.86  39 2.89
  43  0.001  0.668  0.123-  25 2.46  48 2.46  28 2.46  44 2.46  23 2.46  42 2.47  39 2.47  33 2.47
                            51 2.82  61 2.83  34 2.83  45 2.84  26 2.85  47 2.85
  44  0.169  0.835  0.182-  51 2.45  49 2.46   1 2.46  45 2.46  34 2.46  36 2.46  12 2.46  43 2.46
                            46 2.82  35 2.83  28 2.83  48 2.85  39 2.86  11 2.87
  45  0.334  0.667  0.122-  39 2.45  23 2.46  28 2.46  44 2.46  24 2.46  46 2.46  30 2.47  40 2.47
                            29 2.83  47 2.84  12 2.84  43 2.84  62 2.84  36 2.85
  46  0.500  0.835  0.183-  53 2.43  49 2.44  60 2.45   4 2.46  36 2.46  47 2.46  45 2.46  12 2.47
                            37 2.82  44 2.82  40 2.84  30 2.85  48 2.86  52 2.86
  47  0.667  0.668  0.123-  42 2.44  25 2.46  30 2.46  40 2.46  33 2.46  48 2.46  46 2.46  24 2.47
                            60 2.82  45 2.84  41 2.84  53 2.85  31 2.85  43 2.85
  48  0.835  0.834  0.183-   1 2.45  53 2.45   4 2.45  43 2.46  51 2.46  47 2.46  60 2.46  34 2.47
                            13 2.80  42 2.82  38 2.82  33 2.85  44 2.85  46 2.86
  49  0.336  0.999  0.244-   3 2.40  52 2.41  46 2.44  44 2.46  11 2.47   2 2.47  37 2.47  35 2.49
                            18 2.79  12 2.83   4 2.84   8 2.84   1 2.86  36 2.87
  50  0.668  0.333  0.242-   5 2.44  37 2.44  38 2.44  10 2.45  40 2.45  42 2.45   3 2.49   9 2.51
                             4 2.82  41 2.83   6 2.84   8 2.84  53 2.90  59 2.93
  51  0.004  0.667  0.242-  44 2.45   7 2.45  13 2.45  11 2.45  39 2.46  48 2.46  10 2.47  42 2.47
                            27 2.80  12 2.81  43 2.82   6 2.82   1 2.83  53 2.90
  52  0.495  0.835  0.304-  55 2.40  49 2.41  32 2.43  18 2.44  53 2.46  12 2.47   4 2.50   3 2.77
                            11 2.79   9 2.81  46 2.86  13 2.91
  53  0.665  0.674  0.243-  13 2.42  46 2.43  48 2.45  52 2.46   9 2.46  40 2.47  10 2.47  42 2.48
                            32 2.73   4 2.78  12 2.83  47 2.85  51 2.90  50 2.90
  54  0.666  0.997  0.000-  30 2.45  33 2.46  19 2.47  20 2.50  31 2.80  17 2.83  14 2.85  60 2.89
                            58 2.89
  55  0.664  0.994  0.362-  52 2.40   3 2.44  13 2.45   5 2.52  63 2.78  32 2.79   4 2.81  18 2.86
                            59 2.87  15 2.88
  56  0.332  0.334  0.001-  16 2.45  23 2.46  24 2.47  19 2.48  17 2.81  29 2.83  21 2.83  62 2.86
                            58 2.89
  57  0.336  0.335  0.363-   9 2.44   7 2.46   2 2.48   3 2.48  59 2.81  18 2.81   8 2.83  22 2.84
                            63 2.91
  58  0.670  0.337  0.003-  25 2.42  19 2.43  24 2.43  20 2.43  31 2.81  41 2.81  21 2.81  56 2.89
                            54 2.89
  59  0.665  0.331  0.366-   3 2.53   5 2.53   9 2.54  10 2.55  57 2.81  63 2.84  32 2.85  55 2.87
                            22 2.89  50 2.93
  60  0.667  1.000  0.122-  33 2.44  30 2.44  46 2.45  37 2.46  20 2.46  38 2.46  19 2.46  48 2.46
                            47 2.82   4 2.84  41 2.84  36 2.84  34 2.85  54 2.89
  61  0.998  0.335  0.122-  25 2.45  23 2.45  38 2.46  39 2.46  20 2.46  16 2.46  42 2.47  35 2.47
                            41 2.82  43 2.83   6 2.83  21 2.84  34 2.84  62 2.89
  62  0.337  0.332  0.123-  37 2.44  16 2.44  39 2.45  24 2.45  35 2.46  40 2.47  23 2.47  19 2.47
                            36 2.81  41 2.82   8 2.83  45 2.84  56 2.86  61 2.89
  63  0.499  0.147  0.447-  18 2.75  55 2.78  59 2.84  57 2.91   3 3.42
 
  Warning from LATTYP: Monoclinic adjustment (A1->A3, A2->A1, A3->A2)!
  LATTYP: Found a simple monoclinic cell.
 ALAT       =     8.4969997406
 B/A-ratio  =     2.7768624260
 C/A-ratio  =     1.0042014647
 COS(beta)  =    -0.0000611195
  
  Lattice vectors:
  
 A1 = (  -0.0005193328,   8.4969997247,   0.0000000000)
 A2 = (   0.0000000000,   0.0000000000,  23.5949993134)
 A3 = (   8.5326995850,   0.0000000000,   0.0000000000)


Analysis of symmetry for initial positions (statically):
=====================================================================
 Subroutine PRICEL returns:
 Original cell was already a primitive cell.
 

 Routine SETGRP: Setting up the symmetry group for a 
 simple monoclinic supercell.


 Subroutine GETGRP returns: Found  1 space group operations
 (whereof  1 operations were pure point group operations)
 out of a pool of  4 trial point group operations.


The static configuration has the point symmetry C_1 .


Analysis of symmetry for dynamics (positions and initial velocities):
=====================================================================
 Subroutine PRICEL returns:
 Original cell was already a primitive cell.
 

 Routine SETGRP: Setting up the symmetry group for a 
 simple monoclinic supercell.


 Subroutine GETGRP returns: Found  1 space group operations
 (whereof  1 operations were pure point group operations)
 out of a pool of  4 trial point group operations.


The dynamic configuration has the point symmetry C_1 .


Analysis of constrained symmetry for selective dynamics:
=====================================================================
 Subroutine PRICEL returns:
 Original cell was already a primitive cell.
 

 Routine SETGRP: Setting up the symmetry group for a 
 simple monoclinic supercell.


 Subroutine GETGRP returns: Found  1 space group operations
 (whereof  1 operations were pure point group operations)
 out of a pool of  4 trial point group operations.


The constrained configuration has the point symmetry C_1 .


Analysis of structural, dynamic, and magnetic symmetry:
=====================================================================
 Subroutine PRICEL returns:
 Original cell was already a primitive cell.
 

 Routine SETGRP: Setting up the symmetry group for a 
 simple monoclinic supercell.


 Subroutine GETGRP returns: Found  1 space group operations
 (whereof  1 operations were pure point group operations)
 out of a pool of  4 trial point group operations.


The overall configuration has the point symmetry C_1 .


 Subroutine INISYM returns: Found  1 space group operations
 (whereof  1 operations are pure point group operations),
 and found     1 'primitive' translations


----------------------------------------------------------------------------------------

                                     Primitive cell                                     

  volume of cell :    1710.6928

  direct lattice vectors                    reciprocal lattice vectors
     8.532699585  0.000000000  0.000000000     0.117196204  0.000007163  0.000000000
    -0.000519333  8.496999725  0.000000000     0.000000000  0.117688600  0.000000000
     0.000000000  0.000000000 23.594999313     0.000000000  0.000000000  0.042381862

  length of vectors
     8.532699585  8.496999741 23.594999313     0.117196204  0.117688600  0.042381862

  position of ions in fractional coordinates (direct lattice)
     0.000860000  0.999930000  0.242710000
     0.165631973  0.166892718  0.302672129
     0.499458753  0.160831561  0.302096047
     0.668220000  0.001070000  0.242720000
     0.835678031  0.167611424  0.301580443
     0.000440000  0.334970000  0.242400000
     0.169085963  0.504329326  0.303592075
     0.334690000  0.333050000  0.242670000
     0.498058979  0.504772327  0.302864734
     0.833567193  0.500663600  0.301424840
     0.168423866  0.831252326  0.303980632
     0.333420000  0.665550000  0.242610000
     0.836082977  0.832583928  0.301813353
     0.000640000  0.001190000  0.001990000
     0.001601287  0.003552202  0.360720321
     0.168430000  0.169620000  0.062690000
     0.334600000  0.002970000  0.002540000
     0.329312876  0.004237115  0.361922359
     0.504630000  0.168500000  0.061200000
     0.832720000  0.166700000  0.061930000
     0.000040000  0.334670000  0.002130000
     0.003418929  0.335599740  0.359551217
     0.167570000  0.498950000  0.062680000
     0.500990000  0.498960000  0.062060000
     0.833930000  0.502340000  0.062350000
     0.001210000  0.667850000  0.001880000
     0.994360394  0.664533372  0.360644686
     0.167920000  0.834620000  0.062280000
     0.334370000  0.666640000  0.002250000
     0.501520000  0.835630000  0.062170000
     0.667530000  0.667050000  0.001750000
     0.668209346  0.665997143  0.358788747
     0.832930000  0.835840000  0.062350000
     0.001210000  0.000980000  0.122250000
     0.167000000  0.168110000  0.182390000
     0.334700000  0.002270000  0.121920000
     0.501740000  0.167160000  0.182630000
     0.834210000  0.166390000  0.182830000
     0.169640000  0.498680000  0.182090000
     0.502190000  0.500810000  0.183170000
     0.667410000  0.333950000  0.122330000
     0.831340000  0.502530000  0.182830000
     0.001320000  0.667950000  0.122530000
     0.168980000  0.835090000  0.182430000
     0.334460000  0.667030000  0.122230000
     0.499710000  0.835380000  0.182780000
     0.666980000  0.668400000  0.122590000
     0.834880000  0.834030000  0.182940000
     0.335580000  0.998630000  0.243530000
     0.668010000  0.332620000  0.242290000
     0.004480000  0.667390000  0.242170000
     0.495375948  0.835046442  0.303983465
     0.665210000  0.673510000  0.243270000
     0.666200000  0.996800000  0.000000000
     0.664242981  0.993830878  0.361619185
     0.332130000  0.333860000  0.001350000
     0.336401122  0.335130579  0.362648446
     0.670400000  0.336730000  0.003210000
     0.664943040  0.330852295  0.366443801
     0.667280000  0.999980000  0.122460000
     0.998060000  0.334950000  0.122350000
     0.336750000  0.332380000  0.122610000
     0.499362762  0.146527957  0.446915206

  ion indices of the primitive-cell ions
   primitive index   ion index
                 1           1
                 2           2
                 3           3
                 4           4
                 5           5
                 6           6
                 7           7
                 8           8
                 9           9
                10          10
                11          11
                12          12
                13          13
                14          14
                15          15
                16          16
                17          17
                18          18
                19          19
                20          20
                21          21
                22          22
                23          23
                24          24
                25          25
                26          26
                27          27
                28          28
                29          29
                30          30
                31          31
                32          32
                33          33
                34          34
                35          35
                36          36
                37          37
                38          38
                39          39
                40          40
                41          41
                42          42
                43          43
                44          44
                45          45
                46          46
                47          47
                48          48
                49          49
                50          50
                51          51
                52          52
                53          53
                54          54
                55          55
                56          56
                57          57
                58          58
                59          59
                60          60
                61          61
                62          62
                63          63

----------------------------------------------------------------------------------------

 
 
 KPOINTS: K-Spacing Value to Generate K-Mesh: 0.03

Automatic generation of k-mesh.
 Grid dimensions read from file:
 generate k-points for:    4    4    1

 Generating k-lattice:

  Cartesian coordinates                     Fractional coordinates (reciprocal lattice)
     0.029299051  0.000001791  0.000000000     0.250000000  0.000000000  0.000000000
     0.000000000  0.029422150  0.000000000     0.000000000  0.250000000  0.000000000
     0.000000000  0.000000000  0.042381862     0.000000000  0.000000000  1.000000000

  Length of vectors
     0.029299051  0.029422150  0.042381862

  Shift w.r.t. Gamma in fractional coordinates (k-lattice)
     0.000000000  0.000000000  0.000000000

 TETIRR: Found     48 inequivalent tetrahedra from       96
 
 Subroutine IBZKPT returns following result:
 ===========================================
 
 Found     10 irreducible k-points:
 
 Following reciprocal coordinates:
            Coordinates               Weight
  0.000000  0.000000  0.000000      1.000000
  0.250000  0.000000  0.000000      2.000000
  0.500000  0.000000  0.000000      1.000000
  0.000000  0.250000  0.000000      2.000000
  0.250000  0.250000  0.000000      2.000000
  0.500000  0.250000  0.000000      2.000000
 -0.250000  0.250000  0.000000      2.000000
  0.000000  0.500000  0.000000      1.000000
  0.250000  0.500000  0.000000      2.000000
  0.500000  0.500000  0.000000      1.000000
 
 Following cartesian coordinates:
            Coordinates               Weight
  0.000000  0.000000  0.000000      1.000000
  0.029299  0.000002  0.000000      2.000000
  0.058598  0.000004  0.000000      1.000000
  0.000000  0.029422  0.000000      2.000000
  0.029299  0.029424  0.000000      2.000000
  0.058598  0.029426  0.000000      2.000000
 -0.029299  0.029420  0.000000      2.000000
  0.000000  0.058844  0.000000      1.000000
  0.029299  0.058846  0.000000      2.000000
  0.058598  0.058848  0.000000      1.000000
 


--------------------------------------------------------------------------------------------------------




 Dimension of arrays:
   k-points           NKPTS =     10   k-points in BZ     NKDIM =     10   number of bands    NBANDS=    372
   number of dos      NEDOS =    301   number of ions     NIONS =     63
   non local maximal  LDIM  =      6   non local SUM 2l+1 LMDIM =     18
   total plane-waves  NPLWV = 604800
   max r-space proj   IRMAX =   5137   max aug-charges    IRDMAX=  18968
   dimension x,y,z NGX =    60 NGY =   60 NGZ =  168
   dimension x,y,z NGXF=   120 NGYF=  120 NGZF=  336
   support grid    NGXF=   120 NGYF=  120 NGZF=  336
   ions per type =              48  14   1
   NGX,Y,Z   is equivalent  to a cutoff of  11.69, 11.74, 11.84 a.u.
   NGXF,Y,Z  is equivalent  to a cutoff of  23.38, 23.48, 23.67 a.u.

 SYSTEM =  ni3al                                   
 POSCAR =  Generated by VASPKIT code               

 Startparameter for this run:
   NWRITE =      2    write-flag & timer
   PREC   = accura    normal or accurate (medium, high low for compatibility)
   ISTART =      0    job   : 0-new  1-cont  2-samecut
   ICHARG =      2    charge: 1-file 2-atom 10-const
   ISPIN  =      2    spin polarized calculation?
   LNONCOLLINEAR =      F non collinear calculations
   LSORBIT =      F    spin-orbit coupling
   INIWAV =      1    electr: 0-lowe 1-rand  2-diag
   LASPH  =      F    aspherical Exc in radial PAW
 Electronic Relaxation 1
   ENCUT  =  450.0 eV  33.07 Ry    5.75 a.u.  14.76 14.70 40.81*2*pi/ulx,y,z
   ENINI  =  450.0     initial cutoff
   ENAUG  =  519.4 eV  augmentation charge cutoff
   NELM   =    150;   NELMIN=  2; NELMDL= -5     # of ELM steps 
   EDIFF  = 0.1E-04   stopping-criterion for ELM
   LREAL  =      T    real-space projection
   NLSPLINE    = F    spline interpolate recip. space projectors
   LCOMPAT=      F    compatible to vasp.4.4
   GGA_COMPAT  = T    GGA compatible to vasp.4.4-vasp.4.6
   LMAXPAW     = -100 max onsite density
   LMAXMIX     =    4 max onsite mixed and CHGCAR
   VOSKOWN=      0    Vosko Wilk Nusair interpolation
   ROPT   =   -0.00025  -0.00025  -0.00025
 Ionic relaxation
   EDIFFG = 0.1E-03   stopping-criterion for IOM
   NSW    =      0    number of steps for IOM
   NBLOCK =      1;   KBLOCK =      1    inner block; outer block 
   IBRION =     -1    ionic relax: 0-MD 1-quasi-New 2-CG
   NFREE  =      0    steps in history (QN), initial steepest desc. (CG)
   ISIF   =      2    stress and relaxation
   IWAVPR =     10    prediction:  0-non 1-charg 2-wave 3-comb
   ISYM   =      2    0-nonsym 1-usesym 2-fastsym
   LCORR  =      T    Harris-Foulkes like correction to forces

   POTIM  = 0.5000    time-step for ionic-motion
   TEIN   =    0.0    initial temperature
   TEBEG  =    0.0;   TEEND  =   0.0 temperature during run
   SMASS  =  -3.00    Nose mass-parameter (am)
   estimated Nose-frequenzy (Omega)   =  0.10E-29 period in steps = 0.13E+47 mass=  -0.166E-26a.u.
   SCALEE = 1.0000    scale energy and forces
   NPACO  =    256;   APACO  = 10.0  distance and # of slots for P.C.
   PSTRESS=    0.0 pullay stress

  Mass of Ions in am
   POMASS =  55.85 52.00207.20
  Ionic Valenz
   ZVAL   =   8.00 12.00 14.00
  Atomic Wigner-Seitz radii
   RWIGS  =  -1.00 -1.00 -1.00
  virtual crystal weights 
   VCA    =   1.00  1.00  1.00
   NELECT =     566.0000    total number of electrons
   NUPDOWN=      -1.0000    fix difference up-down

 DOS related values:
   EMIN   =  10.00;   EMAX   =-10.00  energy-range for DOS
   EFERMI =   0.00
   ISMEAR =    -5;   SIGMA  =   0.10  broadening in eV -4-tet -1-fermi 0-gaus

 Electronic relaxation 2 (details)
   IALGO  =     38    algorithm
   LDIAG  =      T    sub-space diagonalisation (order eigenvalues)
   LSUBROT=      F    optimize rotation matrix (better conditioning)
   TURBO    =      0    0=normal 1=particle mesh
   IRESTART =      0    0=no restart 2=restart with 2 vectors
   NREBOOT  =      0    no. of reboots
   NMIN     =      0    reboot dimension
   EREF     =   0.00    reference energy to select bands
   IMIX   =      4    mixing-type and parameters
     AMIX     =   0.05;   BMIX     =  0.00
     AMIX_MAG =   0.20;   BMIX_MAG =  0.00
     AMIN     =   0.01
     WC   =   100.;   INIMIX=   1;  MIXPRE=   1;  MAXMIX= -45

 Intra band minimization:
   WEIMIN = 0.0000     energy-eigenvalue tresh-hold
   EBREAK =  0.67E-08  absolut break condition
   DEPER  =   0.30     relativ break condition  

   TIME   =   0.40     timestep for ELM

  volume/ion in A,a.u.               =      27.15       183.24
  Fermi-wavevector in a.u.,A,eV,Ry     =   1.132286  2.139711 17.443656  1.282073
  Thomas-Fermi vector in A             =   2.268987
 
 Write flags
   LWAVE        =      T    write WAVECAR
   LDOWNSAMPLE  =      F    k-point downsampling of WAVECAR
   LCHARG       =      T    write CHGCAR
   LVTOT        =      F    write LOCPOT, total local potential
   LVHAR        =      F    write LOCPOT, Hartree potential only
   LELF         =      T    write electronic localiz. function (ELF)
   LORBIT       =      0    0 simple, 1 ext, 2 COOP (PROOUT), +10 PAW based schemes


 Dipole corrections
   LMONO  =      F    monopole corrections only (constant potential shift)
   LDIPOL =      T    correct potential (dipole corrections)
   IDIPOL =      3    1-x, 2-y, 3-z, 4-all directions 
   EPSILON=  1.0000000 bulk dielectric constant

 Exchange correlation treatment:
   GGA     =    --    GGA type
   LEXCH   =     8    internal setting for exchange type
   LIBXC   =     F    Libxc                    
   VOSKOWN =     0    Vosko Wilk Nusair interpolation
   LHFCALC =     F    Hartree Fock is set to
   LHFONE  =     F    Hartree Fock one center treatment
   AEXX    =    0.0000 exact exchange contribution

 Linear response parameters
   LEPSILON=     F    determine dielectric tensor
   LRPA    =     F    only Hartree local field effects (RPA)
   LNABLA  =     F    use nabla operator in PAW spheres
   LVEL    =     F    velocity operator in full k-point grid
   CSHIFT  =0.1000    complex shift for real part using Kramers Kronig
   OMEGAMAX=  -1.0    maximum frequency
   DEG_THRESHOLD= 0.2000000E-02 threshold for treating states as degnerate
   RTIME   =   -0.100 relaxation time in fs
  (WPLASMAI=    0.000 imaginary part of plasma frequency in eV, 0.658/RTIME)
   DFIELD  = 0.0000000 0.0000000 0.0000000 field for delta impulse in time
 
  Optional k-point grid parameters
   LKPOINTS_OPT  =     F    use optional k-point grid
   KPOINTS_OPT_MODE=     1    mode for optional k-point grid
 
 Orbital magnetization related:
   ORBITALMAG=     F  switch on orbital magnetization
   LCHIMAG   =     F  perturbation theory with respect to B field
   DQ        =  0.001000  dq finite difference perturbation B field
   LLRAUG    =     F  two centre corrections for induced B field



--------------------------------------------------------------------------------------------------------


 Static calculation
 charge density and potential will be updated during run
 spin polarized calculation
 Variant of blocked Davidson
 Davidson routine will perform the subspace rotation
 perform sub-space diagonalisation
    after iterative eigenvector-optimisation
 modified Broyden-mixing scheme, WC =      100.0
 initial mixing is a Kerker type mixing with AMIX =  0.0500 and BMIX =      0.0001
 Hartree-type preconditioning will be used
 using additional bands           89
 real space projection scheme for non local part
 use partial core corrections
 calculate Harris-corrections to forces 
   (improved forces if not selfconsistent)
 use gradient corrections 
 use of overlap-Matrix (Vanderbilt PP)
 Fermi weights with tetrahedron method with Bloechl corrections


--------------------------------------------------------------------------------------------------------


  energy-cutoff  :      450.00
  volume of cell :     1710.69
      direct lattice vectors                 reciprocal lattice vectors
     8.532699585  0.000000000  0.000000000     0.117196204  0.000007163  0.000000000
    -0.000519333  8.496999725  0.000000000     0.000000000  0.117688600  0.000000000
     0.000000000  0.000000000 23.594999313     0.000000000  0.000000000  0.042381862

  length of vectors
     8.532699585  8.496999741 23.594999313     0.117196204  0.117688600  0.042381862


 
 k-points in units of 2pi/SCALE and weight: K-Spacing Value to Generate K-Mesh: 0.03
   0.00000000  0.00000000  0.00000000       0.062
   0.02929905  0.00000179  0.00000000       0.125
   0.05859810  0.00000358  0.00000000       0.062
   0.00000000  0.02942215  0.00000000       0.125
   0.02929905  0.02942394  0.00000000       0.125
   0.05859810  0.02942573  0.00000000       0.125
  -0.02929905  0.02942036  0.00000000       0.125
   0.00000000  0.05884430  0.00000000       0.062
   0.02929905  0.05884609  0.00000000       0.125
   0.05859810  0.05884788  0.00000000       0.062
 
 k-points in reciprocal lattice and weights: K-Spacing Value to Generate K-Mesh: 0.03
   0.00000000  0.00000000  0.00000000       0.062
   0.25000000  0.00000000  0.00000000       0.125
   0.50000000  0.00000000  0.00000000       0.062
   0.00000000  0.25000000  0.00000000       0.125
   0.25000000  0.25000000  0.00000000       0.125
   0.50000000  0.25000000  0.00000000       0.125
  -0.25000000  0.25000000  0.00000000       0.125
   0.00000000  0.50000000  0.00000000       0.062
   0.25000000  0.50000000  0.00000000       0.125
   0.50000000  0.50000000  0.00000000       0.062
 
 position of ions in fractional coordinates (direct lattice) 
   0.00086000  0.99993000  0.24271000
   0.16563197  0.16689272  0.30267213
   0.49945875  0.16083156  0.30209605
   0.66822000  0.00107000  0.24272000
   0.83567803  0.16761142  0.30158044
   0.00044000  0.33497000  0.24240000
   0.16908596  0.50432933  0.30359207
   0.33469000  0.33305000  0.24267000
   0.49805898  0.50477233  0.30286473
   0.83356719  0.50066360  0.30142484
   0.16842387  0.83125233  0.30398063
   0.33342000  0.66555000  0.24261000
   0.83608298  0.83258393  0.30181335
   0.00064000  0.00119000  0.00199000
   0.00160129  0.00355220  0.36072032
   0.16843000  0.16962000  0.06269000
   0.33460000  0.00297000  0.00254000
   0.32931288  0.00423711  0.36192236
   0.50463000  0.16850000  0.06120000
   0.83272000  0.16670000  0.06193000
   0.00004000  0.33467000  0.00213000
   0.00341893  0.33559974  0.35955122
   0.16757000  0.49895000  0.06268000
   0.50099000  0.49896000  0.06206000
   0.83393000  0.50234000  0.06235000
   0.00121000  0.66785000  0.00188000
   0.99436039  0.66453337  0.36064469
   0.16792000  0.83462000  0.06228000
   0.33437000  0.66664000  0.00225000
   0.50152000  0.83563000  0.06217000
   0.66753000  0.66705000  0.00175000
   0.66820935  0.66599714  0.35878875
   0.83293000  0.83584000  0.06235000
   0.00121000  0.00098000  0.12225000
   0.16700000  0.16811000  0.18239000
   0.33470000  0.00227000  0.12192000
   0.50174000  0.16716000  0.18263000
   0.83421000  0.16639000  0.18283000
   0.16964000  0.49868000  0.18209000
   0.50219000  0.50081000  0.18317000
   0.66741000  0.33395000  0.12233000
   0.83134000  0.50253000  0.18283000
   0.00132000  0.66795000  0.12253000
   0.16898000  0.83509000  0.18243000
   0.33446000  0.66703000  0.12223000
   0.49971000  0.83538000  0.18278000
   0.66698000  0.66840000  0.12259000
   0.83488000  0.83403000  0.18294000
   0.33558000  0.99863000  0.24353000
   0.66801000  0.33262000  0.24229000
   0.00448000  0.66739000  0.24217000
   0.49537595  0.83504644  0.30398347
   0.66521000  0.67351000  0.24327000
   0.66620000  0.99680000  0.00000000
   0.66424298  0.99383088  0.36161919
   0.33213000  0.33386000  0.00135000
   0.33640112  0.33513058  0.36264845
   0.67040000  0.33673000  0.00321000
   0.66494304  0.33085229  0.36644380
   0.66728000  0.99998000  0.12246000
   0.99806000  0.33495000  0.12235000
   0.33675000  0.33238000  0.12261000
   0.49936276  0.14652796  0.44691521
 
 position of ions in cartesian coordinates  (Angst):
   0.00681883  8.49640493  5.72674228
   1.41320120  1.41808738  7.14154868
   4.26164797  1.36658573  7.12795602
   5.70171996  0.00909179  5.72697823
   7.13050255  1.42419422  7.11579034
   0.00358043  2.84624000  5.71942783
   1.44249781  4.28528614  7.16325480
   2.85563626  2.82992576  5.72579848
   4.24952550  4.28905032  7.14609319
   7.11231843  4.25413847  7.11211889
   1.43667855  7.06315079  7.17242279
   2.84462705  5.65517817  5.72438278
   7.13361248  7.07446541  7.12128585
   0.00546031  0.01011143  0.04695405
   0.01366145  0.03018306  8.51119572
   1.43707450  1.44126109  1.47917051
   2.85503974  0.02523609  0.05993130
   2.80992564  0.03600276  8.53955782
   4.30576868  1.43174445  1.44401396
   7.10526303  1.41644985  1.46123831
   0.00016750  2.84369090  0.05025735
   0.02899841  2.85159090  8.48361072
   1.42956535  4.23957801  1.47893456
   4.27453804  4.23966298  1.46430566
   7.11541328  4.26838284  1.47114821
   0.00997773  5.67472127  0.04435860
   8.48423340  5.64653988  8.50941112
   1.43237747  7.09176591  1.46949656
   2.85273255  5.66443990  0.05308875
   4.27888553  7.10034788  1.46690111
   5.69548653  5.66792367  0.04129125
   5.70128374  5.65897754  8.46562025
   7.10670739  7.10213225  1.47114821
   0.01032406  0.00832706  2.88448867
   1.42487353  1.42843062  4.30349192
   2.85589337  0.01928819  2.87670232
   4.28110988  1.42035847  4.30915472
   7.11797691  1.41381578  4.31387372
   1.44722818  4.23728382  4.29641342
   4.28477632  4.25538243  4.32189602
   5.69463560  2.83757306  2.88637627
   7.09331349  4.26999727  4.31387372
   0.01091628  5.67557097  2.89109527
   1.44142189  7.09575950  4.30443572
   2.85350029  5.66775373  2.88401677
   4.26344147  7.09822363  4.31269397
   5.69079285  5.67939462  2.89251097
   7.12334709  7.08675268  4.31646917
   2.86288471  8.48535884  5.74609018
   5.69975591  2.82627205  5.71683238
   0.03787990  5.67081265  5.71400098
   4.22646048  7.09538938  7.17248966
   5.67568732  5.72281428  5.73995548
   5.68396679  8.46980933  0.00000000
   5.66726968  8.44458070  8.53240443
   2.83379213  2.83680833  0.03185325
   2.87023567  2.84760444  8.55668983
   5.72014693  2.86119472  0.07573995
   5.67358738  2.81125186  8.64624123
   5.69318046  8.49682978  2.88944362
   8.51597220  2.84607006  2.88684817
   2.87321397  2.82423277  2.89298287
   4.26083633  1.24504801 10.54496398
 


--------------------------------------------------------------------------------------------------------


 k-point   1 :   0.0000 0.0000 0.0000  plane waves:   37053
 k-point   2 :   0.2500 0.0000 0.0000  plane waves:   37082
 k-point   3 :   0.5000 0.0000 0.0000  plane waves:   37122
 k-point   4 :   0.0000 0.2500 0.0000  plane waves:   37091
 k-point   5 :   0.2500 0.2500 0.0000  plane waves:   37070
 k-point   6 :   0.5000 0.2500 0.0000  plane waves:   37050
 k-point   7 :  -0.2500 0.2500 0.0000  plane waves:   37068
 k-point   8 :   0.0000 0.5000 0.0000  plane waves:   37118
 k-point   9 :   0.2500 0.5000 0.0000  plane waves:   37056
 k-point  10 :   0.5000 0.5000 0.0000  plane waves:   37124

 maximum and minimum number of plane-waves per node :     37124    37050

 maximum number of plane-waves:     37124
 maximum index in each direction: 
   IXMAX=   15   IYMAX=   14   IZMAX=   40
   IXMIN=  -15   IYMIN=  -15   IZMIN=  -40


 serial   3D FFT for wavefunctions
 parallel 3D FFT for charge:
    minimum data exchange during FFTs selected (reduces bandwidth)


 total amount of memory used by VASP MPI-rank0  1417722. kBytes
=======================================================================

   base      :      30000. kBytes
   nonlr-proj:      48464. kBytes
   fftplans  :      43220. kBytes
   grid      :     155462. kBytes
   one-center:       1959. kBytes
   wavefun   :    1138617. kBytes
 
     INWAV:  cpu time      0.0001: real time      0.0000
 Broyden mixing: mesh for mixing (old mesh)
   NGX = 29   NGY = 29   NGZ = 81
  (NGX  =120   NGY  =120   NGZ  =336)
  gives a total of  68121 points

 initial charge density was supplied:
 charge density of overlapping atoms calculated
 number of electron     566.0000000 magnetization      63.0000000
 keeping initial charge density in first step


--------------------------------------------------------------------------------------------------------


 Maximum index for non-local projection operator         4950
 Maximum index for augmentation-charges         4509 (set IRDMAX)


--------------------------------------------------------------------------------------------------------


 First call to EWALD:  gamma=   0.148
 Maximum number of real-space cells 4x 4x 2
 Maximum number of reciprocal cells 2x 2x 5

    FEWALD:  cpu time      0.0124: real time      0.0062


--------------------------------------- Iteration      1(   1)  ---------------------------------------


    POTLOK:  cpu time      7.4119: real time      1.5339
    SETDIJ:  cpu time      0.9379: real time      0.1346
     EDDAV:  cpu time    194.8221: real time     28.0290
 BZINTS: Fermi energy:   12.246786;  566.000000 electrons
         Band energy: 0.175802E+04;  BLOECHL correction:   -0.009135
       DOS:  cpu time      0.6381: real time      0.0934
    --------------------------------------------
      LOOP:  cpu time    203.8103: real time     29.7910

 eigenvalue-minimisations  : 15808
 total energy-change (2. order) : 0.5607521E+04  (-0.2414707E+05)
 number of electron     566.0000000 magnetization      63.0000000
 augmentation part      566.0000000 magnetization      63.0000000

 DIPCOR: dipole corrections for dipol
 direction  3 min pos   237,
 dipolmoment           0.000000      0.000000     -0.000198 electrons x Angstroem
 Tr[quadrupol]     -7133.934373

 energy correction for charged system         0.000000 eV
 dipol+quadrupol energy correction           -0.000000 eV
 added-field ion interaction         -0.004122 eV  (added to PSCEN)


 Free energy of the ion-electron system (eV)
  ---------------------------------------------------
  alpha Z        PSCENC =      1814.29443293
  Ewald energy   TEWEN  =    207083.85421532
  -Hartree energ DENC   =   -258271.75179795
  -exchange      EXHF   =         0.00000000
  -V(xc)+E(xc)   XCENC  =       994.56995744
  PAW double counting   =     46365.14764523   -47395.88140329
  entropy T*S    EENTRO =         0.00000000
  eigenvalues    EBANDS =      1758.01627388
  atomic energy  EATOM  =     53259.27193834
  Solvation  Ediel_sol  =         0.00000000
  ---------------------------------------------------
  free energy    TOTEN  =      5607.52126190 eV

  energy without entropy =     5607.52126190  energy(sigma->0) =     5607.52126190


--------------------------------------------------------------------------------------------------------




--------------------------------------- Iteration      1(   2)  ---------------------------------------


     EDDAV:  cpu time    185.2188: real time     26.6004
 BZINTS: Fermi energy:    2.313960;  566.000000 electrons
         Band energy:-0.391178E+04;  BLOECHL correction:   -0.002352
       DOS:  cpu time      0.5604: real time      0.0808
    --------------------------------------------
      LOOP:  cpu time    185.7791: real time     26.6811

 eigenvalue-minimisations  : 14880
 total energy-change (2. order) :-0.5669794E+04  (-0.5470497E+04)
 number of electron     566.0000000 magnetization      63.0000000
 augmentation part      566.0000000 magnetization      63.0000000

 DIPCOR: dipole corrections for dipol
 direction  3 min pos   237,
 dipolmoment           0.000000      0.000000     -0.000198 electrons x Angstroem
 Tr[quadrupol]     -7133.934373

 energy correction for charged system         0.000000 eV
 dipol+quadrupol energy correction           -0.000000 eV
 added-field ion interaction         -0.004122 eV  (added to PSCEN)


 Free energy of the ion-electron system (eV)
  ---------------------------------------------------
  alpha Z        PSCENC =      1814.29443293
  Ewald energy   TEWEN  =    207083.85421532
  -Hartree energ DENC   =   -258271.75179795
  -exchange      EXHF   =         0.00000000
  -V(xc)+E(xc)   XCENC  =       994.56995744
  PAW double counting   =     46365.14764523   -47395.88140329
  entropy T*S    EENTRO =         0.00000000
  eigenvalues    EBANDS =     -3911.77777089
  atomic energy  EATOM  =     53259.27193834
  Solvation  Ediel_sol  =         0.00000000
  ---------------------------------------------------
  free energy    TOTEN  =       -62.27278286 eV

  energy without entropy =      -62.27278286  energy(sigma->0) =      -62.27278286


--------------------------------------------------------------------------------------------------------




--------------------------------------- Iteration      1(   3)  ---------------------------------------


     EDDAV:  cpu time    189.6190: real time     27.2244
 BZINTS: Fermi energy:    1.380279;  566.000000 electrons
         Band energy:-0.437095E+04;  BLOECHL correction:   -0.003351
       DOS:  cpu time      0.5430: real time      0.0776
    --------------------------------------------
      LOOP:  cpu time    190.1620: real time     27.3020

 eigenvalue-minimisations  : 15332
 total energy-change (2. order) :-0.4591762E+03  (-0.4080520E+03)
 number of electron     566.0000000 magnetization      63.0000000
 augmentation part      566.0000000 magnetization      63.0000000

 DIPCOR: dipole corrections for dipol
 direction  3 min pos   237,
 dipolmoment           0.000000      0.000000     -0.000198 electrons x Angstroem
 Tr[quadrupol]     -7133.934373

 energy correction for charged system         0.000000 eV
 dipol+quadrupol energy correction           -0.000000 eV
 added-field ion interaction         -0.004122 eV  (added to PSCEN)


 Free energy of the ion-electron system (eV)
  ---------------------------------------------------
  alpha Z        PSCENC =      1814.29443293
  Ewald energy   TEWEN  =    207083.85421532
  -Hartree energ DENC   =   -258271.75179795
  -exchange      EXHF   =         0.00000000
  -V(xc)+E(xc)   XCENC  =       994.56995744
  PAW double counting   =     46365.14764523   -47395.88140329
  entropy T*S    EENTRO =         0.00000000
  eigenvalues    EBANDS =     -4370.95398360
  atomic energy  EATOM  =     53259.27193834
  Solvation  Ediel_sol  =         0.00000000
  ---------------------------------------------------
  free energy    TOTEN  =      -521.44899558 eV

  energy without entropy =     -521.44899558  energy(sigma->0) =     -521.44899558


--------------------------------------------------------------------------------------------------------




--------------------------------------- Iteration      1(   4)  ---------------------------------------


     EDDAV:  cpu time    290.5862: real time     41.7156
 BZINTS: Fermi energy:    1.226934;  566.000000 electrons
         Band energy:-0.442916E+04;  BLOECHL correction:   -0.002370
       DOS:  cpu time      0.5105: real time      0.0729
    --------------------------------------------
      LOOP:  cpu time    291.0966: real time     41.7885

 eigenvalue-minimisations  : 26120
 total energy-change (2. order) :-0.5820834E+02  (-0.5431497E+02)
 number of electron     566.0000000 magnetization      63.0000000
 augmentation part      566.0000000 magnetization      63.0000000

 DIPCOR: dipole corrections for dipol
 direction  3 min pos   237,
 dipolmoment           0.000000      0.000000     -0.000198 electrons x Angstroem
 Tr[quadrupol]     -7133.934373

 energy correction for charged system         0.000000 eV
 dipol+quadrupol energy correction           -0.000000 eV
 added-field ion interaction         -0.004122 eV  (added to PSCEN)


 Free energy of the ion-electron system (eV)
  ---------------------------------------------------
  alpha Z        PSCENC =      1814.29443293
  Ewald energy   TEWEN  =    207083.85421532
  -Hartree energ DENC   =   -258271.75179795
  -exchange      EXHF   =         0.00000000
  -V(xc)+E(xc)   XCENC  =       994.56995744
  PAW double counting   =     46365.14764523   -47395.88140329
  entropy T*S    EENTRO =         0.00000000
  eigenvalues    EBANDS =     -4429.16232078
  atomic energy  EATOM  =     53259.27193834
  Solvation  Ediel_sol  =         0.00000000
  ---------------------------------------------------
  free energy    TOTEN  =      -579.65733276 eV

  energy without entropy =     -579.65733276  energy(sigma->0) =     -579.65733276


--------------------------------------------------------------------------------------------------------




--------------------------------------- Iteration      1(   5)  ---------------------------------------


     EDDAV:  cpu time    275.0560: real time     39.5379
 BZINTS: Fermi energy:    1.202637;  566.000000 electrons
         Band energy:-0.443257E+04;  BLOECHL correction:   -0.004059
       DOS:  cpu time      0.5578: real time      0.0801
    CHARGE:  cpu time      1.5674: real time      0.4576
    MIXING:  cpu time      0.1016: real time      0.0151
    --------------------------------------------
      LOOP:  cpu time    277.2834: real time     40.0907

 eigenvalue-minimisations  : 24528
 total energy-change (2. order) :-0.3406743E+01  (-0.3210431E+01)
 number of electron     566.0000204 magnetization      61.8254257
 augmentation part      257.3465282 magnetization      43.7831603

 DIPCOR: dipole corrections for dipol
 direction  3 min pos   237,
 dipolmoment           0.000000      0.000000     -0.000198 electrons x Angstroem
 Tr[quadrupol]     -7133.934373

 energy correction for charged system         0.000000 eV
 dipol+quadrupol energy correction           -0.000000 eV
 added-field ion interaction         -0.004122 eV  (added to PSCEN)


 Broyden mixing:
  rms(total) = 0.93569E+01    rms(broyden)= 0.93544E+01
  rms(prec ) = 0.10424E+02
  weight for this iteration     100.00

 Free energy of the ion-electron system (eV)
  ---------------------------------------------------
  alpha Z        PSCENC =      1814.29443293
  Ewald energy   TEWEN  =    207083.85421532
  -Hartree energ DENC   =   -258271.75179795
  -exchange      EXHF   =         0.00000000
  -V(xc)+E(xc)   XCENC  =       994.56995744
  PAW double counting   =     46365.14764523   -47395.88140329
  entropy T*S    EENTRO =         0.00000000
  eigenvalues    EBANDS =     -4432.56906394
  atomic energy  EATOM  =     53259.27193834
  Solvation  Ediel_sol  =         0.00000000
  ---------------------------------------------------
  free energy    TOTEN  =      -583.06407592 eV

  energy without entropy =     -583.06407592  energy(sigma->0) =     -583.06407592


--------------------------------------------------------------------------------------------------------




--------------------------------------- Iteration      1(   6)  ---------------------------------------


    POTLOK:  cpu time      7.4092: real time      1.5181
    SETDIJ:  cpu time      0.9418: real time      0.1346
     EDDAV:  cpu time    301.3639: real time     43.2293
 BZINTS: Fermi energy:    2.366913;  566.000000 electrons
         Band energy:-0.388587E+04;  BLOECHL correction:   -0.018236
       DOS:  cpu time      0.5354: real time      0.0765
    CHARGE:  cpu time      1.7116: real time      0.4454
    MIXING:  cpu time      0.1384: real time      0.0198
    --------------------------------------------
      LOOP:  cpu time    312.1004: real time     45.4237

 eigenvalue-minimisations  : 27040
 total energy-change (2. order) :-0.1429791E+03  (-0.3168323E+02)
 number of electron     566.0000225 magnetization      60.1620504
 augmentation part      257.8467471 magnetization      52.2325556

 DIPCOR: dipole corrections for dipol
 direction  3 min pos   233,
 dipolmoment           0.000000      0.000000      1.648808 electrons x Angstroem
 Tr[quadrupol]     -7156.884456

 energy correction for charged system         0.000000 eV
 dipol+quadrupol energy correction           -0.143782 eV
 added-field ion interaction          6.657817 eV  (added to PSCEN)


 Broyden mixing:
  rms(total) = 0.15134E+02    rms(broyden)= 0.15132E+02
  rms(prec ) = 0.20603E+02
  weight for this iteration     100.00

 eigenvalues of (default mixing * dielectric matrix)
  average eigenvalue GAMMA=   0.2546
  0.2546

 Free energy of the ion-electron system (eV)
  ---------------------------------------------------
  alpha Z        PSCENC =      1820.81258954
  Ewald energy   TEWEN  =    207083.85421532
  -Hartree energ DENC   =   -258973.56677727
  -exchange      EXHF   =         0.00000000
  -V(xc)+E(xc)   XCENC  =       986.51021773
  PAW double counting   =     46651.88212090   -47668.94059289
  entropy T*S    EENTRO =         0.00000000
  eigenvalues    EBANDS =     -3885.86686224
  atomic energy  EATOM  =     53259.27193834
  Solvation  Ediel_sol  =         0.00000000
  ---------------------------------------------------
  free energy    TOTEN  =      -726.04315057 eV

  energy without entropy =     -726.04315057  energy(sigma->0) =     -726.04315057


--------------------------------------------------------------------------------------------------------




--------------------------------------- Iteration      1(   7)  ---------------------------------------


    POTLOK:  cpu time      7.0520: real time      1.4654
    SETDIJ:  cpu time      0.9347: real time      0.1343
     EDDAV:  cpu time    306.4873: real time     43.9153
 BZINTS: Fermi energy:    1.868935;  566.000000 electrons
         Band energy:-0.423276E+04;  BLOECHL correction:   -0.007327
       DOS:  cpu time      0.5320: real time      0.0771
    CHARGE:  cpu time      1.3411: real time      0.4457
    MIXING:  cpu time      0.1257: real time      0.0180
    --------------------------------------------
      LOOP:  cpu time    316.4727: real time     46.0558

 eigenvalue-minimisations  : 27552
 total energy-change (2. order) : 0.3613355E+02  (-0.3624964E+02)
 number of electron     566.0000115 magnetization      58.7688739
 augmentation part      260.7893700 magnetization      51.6443001

 DIPCOR: dipole corrections for dipol
 direction  3 min pos   237,
 dipolmoment           0.000000      0.000000     -1.576151 electrons x Angstroem
 Tr[quadrupol]     -7145.497021

 energy correction for charged system         0.000000 eV
 dipol+quadrupol energy correction           -0.131390 eV
 added-field ion interaction        -32.870815 eV  (added to PSCEN)


 Broyden mixing:
  rms(total) = 0.14673E+02    rms(broyden)= 0.14672E+02
  rms(prec ) = 0.22362E+02
  weight for this iteration     100.00

 eigenvalues of (default mixing * dielectric matrix)
  average eigenvalue GAMMA=   0.2104
  0.3082  0.1126

 Free energy of the ion-electron system (eV)
  ---------------------------------------------------
  alpha Z        PSCENC =      1781.29635036
  Ewald energy   TEWEN  =    207083.85421532
  -Hartree energ DENC   =   -258551.87109585
  -exchange      EXHF   =         0.00000000
  -V(xc)+E(xc)   XCENC  =       984.39094034
  PAW double counting   =     46730.32077203   -47744.41344128
  entropy T*S    EENTRO =         0.00000000
  eigenvalues    EBANDS =     -4232.75928434
  atomic energy  EATOM  =     53259.27193834
  Solvation  Ediel_sol  =         0.00000000
  ---------------------------------------------------
  free energy    TOTEN  =      -689.90960508 eV

  energy without entropy =     -689.90960508  energy(sigma->0) =     -689.90960508


--------------------------------------------------------------------------------------------------------




--------------------------------------- Iteration      1(   8)  ---------------------------------------


    POTLOK:  cpu time      7.1344: real time      1.4754
    SETDIJ:  cpu time      0.9394: real time      0.1342
     EDDAV:  cpu time    302.6122: real time     43.4081
 BZINTS: Fermi energy:    1.215292;  566.000000 electrons
         Band energy:-0.430317E+04;  BLOECHL correction:   -0.015403
       DOS:  cpu time      0.5585: real time      0.0801
    CHARGE:  cpu time      1.7164: real time      0.4498
    MIXING:  cpu time      0.1071: real time      0.0153
    --------------------------------------------
      LOOP:  cpu time    313.0678: real time     45.5629

 eigenvalue-minimisations  : 27208
 total energy-change (2. order) : 0.1378371E+03  (-0.1763626E+02)
 number of electron     566.0000216 magnetization      57.3669785
 augmentation part      261.9974748 magnetization      43.2656520

 DIPCOR: dipole corrections for dipol
 direction  3 min pos   234,
 dipolmoment           0.000000      0.000000      0.619578 electrons x Angstroem
 Tr[quadrupol]     -7142.945602

 energy correction for charged system         0.000000 eV
 dipol+quadrupol energy correction           -0.020303 eV
 added-field ion interaction          5.106716 eV  (added to PSCEN)


 Broyden mixing:
  rms(total) = 0.89928E+01    rms(broyden)= 0.89905E+01
  rms(prec ) = 0.11180E+02
  weight for this iteration     100.00

 eigenvalues of (default mixing * dielectric matrix)
  average eigenvalue GAMMA=   0.3689
  0.5138  0.5138  0.0791

 Free energy of the ion-electron system (eV)
  ---------------------------------------------------
  alpha Z        PSCENC =      1819.38496806
  Ewald energy   TEWEN  =    207083.85421532
  -Hartree energ DENC   =   -258382.44398847
  -exchange      EXHF   =         0.00000000
  -V(xc)+E(xc)   XCENC  =       982.82446745
  PAW double counting   =     46806.35412788   -47818.14917990
  entropy T*S    EENTRO =         0.00000000
  eigenvalues    EBANDS =     -4303.16906642
  atomic energy  EATOM  =     53259.27193834
  Solvation  Ediel_sol  =         0.00000000
  ---------------------------------------------------
  free energy    TOTEN  =      -552.07251775 eV

  energy without entropy =     -552.07251775  energy(sigma->0) =     -552.07251775


--------------------------------------------------------------------------------------------------------




--------------------------------------- Iteration      1(   9)  ---------------------------------------


    POTLOK:  cpu time      7.0793: real time      1.4686
    SETDIJ:  cpu time      0.9400: real time      0.1343
     EDDAV:  cpu time    286.8051: real time     41.0754
 BZINTS: Fermi energy:    1.015535;  566.000000 electrons
         Band energy:-0.442361E+04;  BLOECHL correction:   -0.010842
       DOS:  cpu time      0.5349: real time      0.0764
    CHARGE:  cpu time      1.6476: real time      0.4526
    MIXING:  cpu time      0.1195: real time      0.0171
    --------------------------------------------
      LOOP:  cpu time    297.1265: real time     43.2244

 eigenvalue-minimisations  : 25624
 total energy-change (2. order) : 0.2090651E+02  (-0.7277366E+01)
 number of electron     566.0000187 magnetization      56.6142286
 augmentation part      264.2507546 magnetization      38.7500663

 DIPCOR: dipole corrections for dipol
 direction  3 min pos   232,
 dipolmoment           0.000000      0.000000      0.030458 electrons x Angstroem
 Tr[quadrupol]     -7142.069035

 energy correction for charged system         0.000000 eV
 dipol+quadrupol energy correction           -0.000049 eV
 added-field ion interaction         -0.005066 eV  (added to PSCEN)


 Broyden mixing:
  rms(total) = 0.68982E+01    rms(broyden)= 0.68971E+01
  rms(prec ) = 0.73602E+01
  weight for this iteration     100.00

 eigenvalues of (default mixing * dielectric matrix)
  average eigenvalue GAMMA=   0.5582
  1.4236  0.3641  0.3641  0.0809

 Free energy of the ion-electron system (eV)
  ---------------------------------------------------
  alpha Z        PSCENC =      1814.29343955
  Ewald energy   TEWEN  =    207083.85421532
  -Hartree energ DENC   =   -258237.66071623
  -exchange      EXHF   =         0.00000000
  -V(xc)+E(xc)   XCENC  =       977.88457657
  PAW double counting   =     47012.54146867   -48017.74367841
  entropy T*S    EENTRO =         0.00000000
  eigenvalues    EBANDS =     -4423.60725389
  atomic energy  EATOM  =     53259.27193834
  Solvation  Ediel_sol  =         0.00000000
  ---------------------------------------------------
  free energy    TOTEN  =      -531.16601008 eV

  energy without entropy =     -531.16601008  energy(sigma->0) =     -531.16601008


--------------------------------------------------------------------------------------------------------




--------------------------------------- Iteration      1(  10)  ---------------------------------------


    POTLOK:  cpu time      7.0900: real time      1.4738
    SETDIJ:  cpu time      0.9360: real time      0.1346
     EDDAV:  cpu time    276.3516: real time     39.7272
 BZINTS: Fermi energy:    0.648668;  566.000000 electrons
         Band energy:-0.459747E+04;  BLOECHL correction:   -0.004016
       DOS:  cpu time      0.5254: real time      0.0751
    CHARGE:  cpu time      1.7405: real time      0.4508
    MIXING:  cpu time      0.1151: real time      0.0165
    --------------------------------------------
      LOOP:  cpu time    286.7587: real time     41.8779

 eigenvalue-minimisations  : 24424
 total energy-change (2. order) : 0.1437101E+02  (-0.4547876E+01)
 number of electron     566.0000223 magnetization      54.9380861
 augmentation part      271.6211566 magnetization      36.8803197

 DIPCOR: dipole corrections for dipol
 direction  3 min pos   230,
 dipolmoment           0.000000      0.000000      0.235536 electrons x Angstroem
 Tr[quadrupol]     -7142.649645

 energy correction for charged system         0.000000 eV
 dipol+quadrupol energy correction           -0.002934 eV
 added-field ion interaction         -2.019701 eV  (added to PSCEN)


 Broyden mixing:
[...]
  206        set_dd_paw                            0.081773                            1   3
  207          m_sumb_d                              0.005958                          7   4
  208        strkin                                0.069142                            1   3
  209          m_sumb_d                              0.000513                          1   4
  210        strelo                                0.006109                            1   3
  211          m_sumb_d                              0.000173                          2   4
  212        strnlr                                9.401093                            1   3
  213          rspher_all                            0.524120                          9   4
  214          phaser                                1.492910                         90   4
  215          rpro_isp                              7.111352                         90   4
  216            fftwav_mpi                            0.306266                    16740   5
  217              fftwav                                0.281389                  16740   6
  218                fft3d                                 0.173516                16740   7
  219            rpromu_acc                            6.748175                     4320   5
  220          m_sumb_d                              0.202648                          1   4
  221        fft3d_mpi                             0.254113                           22   3
  222          fftbrc_mpi                            0.232420                         22   4
  223            fftbas_plan_mpi                       0.232390                       22   5
  224              dfftw_execute                         0.067474                     66   6
  225              map_forward                           0.066393                     20   6
  226                map_gather                            0.017201                   10   7
  227                m_alltoallv_z                         0.038715                   10   7
  228                map_scatter                           0.010403                   10   7
  229              map_backward                          0.096055                     24   6
  230                map_gather                            0.010920                   12   7
  231                m_alltoallv_z                         0.053709                   12   7
  232                map_scatter                           0.031332                   12   7
  233        m_sumb_d                              0.000055                            5   3
  234        forhar                                0.093547                            2   3
  235          m_sumb_d                              0.001863                          2   4
  236        strehar                               0.004040                            1   3
  237          m_sumb_d                              0.000129                          1   4
  238        chggra                                0.067302                            1   3
  239          fft3d_mpi                             0.062851                          3   4
  240            fftbrc_mpi                            0.061298                        3   5
  241              fftbas_plan_mpi                       0.061295                      3   6
  242                map_forward                           0.038411                    4   7
  243                  map_gather                            0.000012                  2   8
  244                  m_alltoallv_z                         0.038375                  2   8
  245                  map_scatter                           0.000008                  2   8
  246                map_backward                          0.000029                    2   7
  247                  map_gather                            0.000003                  1   8
  248                  m_alltoallv_z                         0.000016                  1   8
  249                  map_scatter                           0.000003                  1   8
  250          m_sumb_d                              0.000030                          2   4
  251          pothar                                0.000417                          1   4
  252            m_sumb_d                              0.000005                        1   5
  253        brmix                                 0.127282                            1   3
  254          m_sumb_d                              0.000058                          6   4
  255          brpre                                 0.000236                          2   4
  256          setg0                                 0.008077                          1   4
  257          broyd                                 0.113801                          1   4
  258            m_sumb_d                              0.012058                       51   5
  259            brget                                 0.007061                      229   5
  260            brsav                                 0.005109                       49   5
  261        m_bcast_d                             0.000058                            2   3
  262      potlok                                1.489220                              1   2
  263        fft3d_mpi                             0.311981                           26   3
  264          fftbrc_mpi                            0.283502                         26   4
  265            fftbas_plan_mpi                       0.283471                       26   5
  266              dfftw_execute                         0.073436                     78   6
  267              map_forward                           0.103698                     28   6
  268                map_gather                            0.016634                   16   7
  269                m_alltoallv_z                         0.074629                   16   7
  270                map_scatter                           0.012328                   16   7
  271              map_backward                          0.103820                     24   6
  272                map_gather                            0.009940                   12   7
  273                m_alltoallv_z                         0.048250                   12   7
  274                map_scatter                           0.045532                   12   7
  275        m_sumb_d                              0.000301                            8   3
  276        fewald                                0.000087                            2   3
  277          rsp                                   0.000055                          2   4
  278          rcp                                   0.000030                          2   4
  279        pothar                                0.007599                            1   3
  280          m_sumb_d                              0.000013                          1   4
  281        m_bcast_d                             0.003528                            2   3
  282      potlok_metagga                        0.000000                              1   2
  283      set_dd_magatom                        0.000006                              1   2
  284      set_dd_paw                            0.081800                              1   2
  285        m_sumb_d                              0.005999                            7   3
  286      m_bcast_d                             0.000025                              2   2
  287      fftwav_mpi                           19.958543                           5580   2
  288        fftwav                               19.919629                         5580   3
  289          fft3d                                13.958410                       5580   4
  290      densta                                0.074771                              1   2
 
 Flat profile
 ============
 
             routine name                   CPU           calls
 ---------------------------------------------------------------
 eddav                                1235.105014          59
 lapack                                266.165770      234073
 m_sumb_d                              256.981671      716323
 rpromu_acc                            117.362432      184853
 hamiltmu                              102.244855      234073
 total_time                             83.380594           1
 potlok                                 65.181847          56
 newband                                54.552452      235253
 racc0mu_acc                            52.832464      234073
 m_alltoall_d                           44.768697     3355441
 fft3d                                  33.044721     1385631
 orth1                                  29.056059      702239
 raccmu_                                26.032606      234073
 phaser                                 21.770171        1310
 overl_mu                               19.662239      234073
 w1_copy                                14.572296     1387029
 redis_pw                               13.249375     1279689
 fftwav                                 12.530081      923288
 ggemm                                  12.093342      289533
 m_bcast_z                              10.999879      241513
 redis_proj                              7.751218     1632312
 m_alltoallv_z                           7.019687        1968
 overl                                   5.997361      814966
 dfftw_execute                           4.681797        5169
 densta                                  4.525224          60
 setdij_                                 4.386604          83
 set_dd_paw                              4.318346          57
 lincom                                  3.716130        1200
 map_scatter                             3.072613        1968
 augmentation_charge                     2.817315          55
 m_bcast_d                               2.406377      468262
 fft3d_mpi                               2.352852      464069
 eccp                                    2.257731      109740
 broyd                                   2.183019          55
 kinhamil                                2.122248      462343
 fftext_mpi                              2.026001      462343
 map_gather                              1.891308        1968
 vhamil                                  1.673889      462343
 fftwav_mpi                              1.610103      923288
 apply_precond                           1.491944      352603
 depsum                                  1.340640          55
 force_and_stress                        1.253411           1
 elmin                                   1.151050           1
 fftbas_plan_mpi                         0.945428        1726
 orthch                                  0.803110           1
 rspher_all                              0.778519          14
 setup_precond                           0.763062      109740
 init_hip                                0.442970           1
 pothar                                  0.424468          57
 choleski                                0.359096          20
 brmix                                   0.350470          55
 setg0                                   0.349804          57
 soft_charge                             0.342042          55
 brgrid                                  0.295916           1
 brget                                   0.232460        7773
 pw_charge                               0.197244       78582
 set_charge                              0.190990          55
 proall                                  0.179410           1
 brsav                                   0.178826        1929
 w1_projall                              0.169774      178613
 forhar                                  0.091684           2
 truncate_high_frequency_w1              0.088751      572083
 rpro_isp                                0.083601         130
 strnlr                                  0.070063           1
 strkin                                  0.068629           1
 stufak                                  0.054267           1
 forloc                                  0.046660           1
 fft_gq                                  0.042573          55
 fornlr                                  0.026935           1
 brpre                                   0.013409         110
 inisym                                  0.011827           1
 rsp                                     0.007296         113
 map_backward                            0.006995        1822
 map_forward                             0.006182        1630
 strelo                                  0.005936           1
 chggra                                  0.004004           1
 strehar                                 0.003911           1
 hip_hipfft_makeplan                     0.002774           6
 fftbrc_mpi                              0.002017        1726
 rcp                                     0.001889         113
 fewald                                  0.001776         113
 set_dd_magatom                          0.000355          57
 vectorpot                               0.000339          56
 fordep                                  0.000203           1
 hip_init_hipblas                        0.000200           1
 hip_init_rocsolver                      0.000070           1
 crpa_reader                             0.000066           1
 potlok_metagga                          0.000041          56
 posmap                                  0.000016           2
 rotate_active_occupied_orbital          0.000007           1
 hip_hipfft_makeplans                    0.000002           3
 redis_pw_over_bands                     0.000000           1
 ---------------------------------------------------------------
  summed up times    2551.27949905396     
 
 Accumulative profile
 ====================
 
             routine name                   CPU           calls
 ---------------------------------------------------------------
 total_time                           2551.279499           1
 elmin                                2415.049699           1
 eddav                                2293.406845          59
 lapack                                266.165770      234073
 m_sumb_d                              256.981671      716323
 hamiltmu                              212.981335      234073
 rpromu_acc                            117.362432      184853
 w1_projall                            107.710273      178613
 raccmu_                                98.527309      234073
 potlok                                 82.368927          56
 newband                                67.001149      235253
 racc0mu_acc                            52.832464      234073
 m_alltoall_d                           44.768697     3355441
 fftwav_mpi                             41.095482      923288
 fftwav                                 39.485379      923288
 redis_pw                               35.880836     1279689
 fft3d                                  33.044721     1385631
 redis_proj                             29.888455     1632312
 orth1                                  29.056059      702239
 fft3d_mpi                              26.068301      464069
 set_charge                             24.578947          55
 phaser                                 21.770171        1310
 overl_mu                               19.662239      234073
 soft_charge                            18.758479          55
 fftbrc_mpi                             17.626026        1726
 fftbas_plan_mpi                        17.624009        1726
 force_and_stress                       16.373752           1
 w1_copy                                14.572296     1387029
 ggemm                                  12.093342      289533
 m_bcast_z                              10.999879      241513
 rpro_isp                               10.679888         130
 kinhamil                               10.535282      462343
 strnlr                                  9.401093           1
 fftext_mpi                              8.413034      462343
 m_alltoallv_z                           7.019687        1968
 map_backward                            6.890415        1822
 overl                                   5.997361      814966
 orthch                                  5.272433           1
 map_forward                             5.106369        1630
 dfftw_execute                           4.681797        5169
 set_dd_paw                              4.648694          57
 densta                                  4.525224          60
 setdij_                                 4.417616          83
 augmentation_charge                     4.218995          55
 brmix                                   3.732612          55
 lincom                                  3.716130        1200
 fornlr                                  3.140345           1
 map_scatter                             3.072613        1968
 broyd                                   2.993914          55
 m_bcast_d                               2.406377      468262
 eccp                                    2.257731      109740
 map_gather                              1.891308        1968
 vhamil                                  1.673889      462343
 proall                                  1.507886           1
 apply_precond                           1.491944      352603
 depsum                                  1.410483          55
 rspher_all                              0.778519          14
 setup_precond                           0.763062      109740
 fft_gq                                  0.754307          55
 pothar                                  0.560886          57
 init_hip                                0.442970           1
 choleski                                0.359096          20
 setg0                                   0.349804          57
 fordep                                  0.321203           1
 brgrid                                  0.295916           1
 brget                                   0.232460        7773
 pw_charge                               0.197244       78582
 brsav                                   0.178826        1929
 forhar                                  0.093547           2
 truncate_high_frequency_w1              0.088751      572083
 strkin                                  0.069142           1
 chggra                                  0.067302           1
 stufak                                  0.054267           1
 forloc                                  0.049657           1
 brpre                                   0.013409         110
 inisym                                  0.011843           1
 fewald                                  0.011061         113
 rsp                                     0.007296         113
 strelo                                  0.006109           1
 strehar                                 0.004040           1
 hip_hipfft_makeplans                    0.002776           3
 hip_hipfft_makeplan                     0.002774           6
 rcp                                     0.001889         113
 set_dd_magatom                          0.000355          57
 vectorpot                               0.000339          56
 hip_init_hipblas                        0.000200           1
 hip_init_rocsolver                      0.000070           1
 crpa_reader                             0.000066           1
 potlok_metagga                          0.000041          56
 posmap                                  0.000016           2
 rotate_active_occupied_orbital          0.000007           1
 redis_pw_over_bands                     0.000000           1
 ---------------------------------------------------------------
 
Profiling took   5.113390  2.014890  0.002838  0.002730 seconds
Profiling took   2.956465 seconds
