<?xml version="1.0" encoding="ISO-8859-1"?>
<modeling>
 <generator>
  <i name="program" type="string">vasp </i>
  <i name="version" type="string">6.3.2  </i>
  <i name="subversion" type="string">27Jun22 (build Mar 15 2023 15:45:48) complex                          parallel </i>
  <i name="platform" type="string">LinuxIFC </i>
  <i name="date" type="string">2025 02 10 </i>
  <i name="time" type="string">23:37:06 </i>
 </generator>
 <incar>
  <i type="string" name="SYSTEM">ni3al</i>
  <i type="int" name="ISTART">     0</i>
  <i type="string" name="PREC">Accurate</i>
  <i type="string" name="ALGO">Normal</i>
  <i type="int" name="ISPIN">     2</i>
  <i type="int" name="IMIX">     4</i>
  <i name="AMIX">      0.05000000</i>
  <i name="BMIX">      0.00010000</i>
  <i name="AMIN">      0.01000000</i>
  <i type="int" name="ICHARG">     2</i>
  <i type="int" name="NELM">   150</i>
  <i type="int" name="IBRION">    -1</i>
  <i name="EDIFF">      0.00001000</i>
  <i type="int" name="NSW">     0</i>
  <i type="int" name="ISIF">     2</i>
  <i name="ENCUT">    450.00000000</i>
  <i type="string" name="LREAL">Auto</i>
  <i type="int" name="ISMEAR">    -5</i>
  <i name="SIGMA">      0.10000000</i>
  <i type="int" name="LMAXMIX">     4</i>
  <i type="logical" name="LWAVE"> T  </i>
  <i type="logical" name="LCHARG"> T  </i>
  <i type="logical" name="LELF"> T  </i>
  <i type="logical" name="LDIPOL"> T  </i>
  <i type="int" name="IDIPOL">     3</i>
 </incar>
 <primitive_cell>
  <structure name="primitive_cell" >
   <crystal>
    <varray name="basis" >
     <v>       8.53269958       0.00000000       0.00000000 </v>
     <v>      -0.00051933       8.49699972       0.00000000 </v>
     <v>       0.00000000       0.00000000      23.59499931 </v>
    </varray>
    <i name="volume">   1710.69280467 </i>
    <varray name="rec_basis" >
     <v>       0.11719620       0.00000716       0.00000000 </v>
     <v>       0.00000000       0.11768860       0.00000000 </v>
     <v>       0.00000000       0.00000000       0.04238186 </v>
    </varray>
   </crystal>
   <varray name="positions" >
    <v>       0.00086000       0.99993000       0.24271000 </v>
    <v>       0.16563197       0.16689272       0.30267213 </v>
    <v>       0.49945875       0.16083156       0.30209605 </v>
    <v>       0.66822000       0.00107000       0.24272000 </v>
    <v>       0.83567803       0.16761142       0.30158044 </v>
    <v>       0.00044000       0.33497000       0.24240000 </v>
    <v>       0.16908596       0.50432933       0.30359207 </v>
    <v>       0.33469000       0.33305000       0.24267000 </v>
    <v>       0.49805898       0.50477233       0.30286473 </v>
    <v>       0.83356719       0.50066360       0.30142484 </v>
    <v>       0.16842387       0.83125233       0.30398063 </v>
    <v>       0.33342000       0.66555000       0.24261000 </v>
    <v>       0.83608298       0.83258393       0.30181335 </v>
    <v>       0.00064000       0.00119000       0.00199000 </v>
    <v>       0.00160129       0.00355220       0.36072032 </v>
    <v>       0.16843000       0.16962000       0.06269000 </v>
    <v>       0.33460000       0.00297000       0.00254000 </v>
    <v>       0.32931288       0.00423711       0.36192236 </v>
    <v>       0.50463000       0.16850000       0.06120000 </v>
    <v>       0.83272000       0.16670000       0.06193000 </v>
    <v>       0.00004000       0.33467000       0.00213000 </v>
    <v>       0.00341893       0.33559974       0.35955122 </v>
    <v>       0.16757000       0.49895000       0.06268000 </v>
    <v>       0.50099000       0.49896000       0.06206000 </v>
    <v>       0.83393000       0.50234000       0.06235000 </v>
    <v>       0.00121000       0.66785000       0.00188000 </v>
    <v>       0.99436039       0.66453337       0.36064469 </v>
    <v>       0.16792000       0.83462000       0.06228000 </v>
    <v>       0.33437000       0.66664000       0.00225000 </v>
    <v>       0.50152000       0.83563000       0.06217000 </v>
    <v>       0.66753000       0.66705000       0.00175000 </v>
    <v>       0.66820935       0.66599714       0.35878875 </v>
    <v>       0.83293000       0.83584000       0.06235000 </v>
    <v>       0.00121000       0.00098000       0.12225000 </v>
    <v>       0.16700000       0.16811000       0.18239000 </v>
    <v>       0.33470000       0.00227000       0.12192000 </v>
    <v>       0.50174000       0.16716000       0.18263000 </v>
    <v>       0.83421000       0.16639000       0.18283000 </v>
    <v>       0.16964000       0.49868000       0.18209000 </v>
    <v>       0.50219000       0.50081000       0.18317000 </v>
    <v>       0.66741000       0.33395000       0.12233000 </v>
    <v>       0.83134000       0.50253000       0.18283000 </v>
    <v>       0.00132000       0.66795000       0.12253000 </v>
    <v>       0.16898000       0.83509000       0.18243000 </v>
    <v>       0.33446000       0.66703000       0.12223000 </v>
    <v>       0.49971000       0.83538000       0.18278000 </v>
    <v>       0.66698000       0.66840000       0.12259000 </v>
    <v>       0.83488000       0.83403000       0.18294000 </v>
    <v>       0.33558000       0.99863000       0.24353000 </v>
    <v>       0.66801000       0.33262000       0.24229000 </v>
    <v>       0.00448000       0.66739000       0.24217000 </v>
    <v>       0.49537595       0.83504644       0.30398347 </v>
    <v>       0.66521000       0.67351000       0.24327000 </v>
    <v>       0.66620000       0.99680000       0.00000000 </v>
    <v>       0.66424298       0.99383088       0.36161919 </v>
    <v>       0.33213000       0.33386000       0.00135000 </v>
    <v>       0.33640112       0.33513058       0.36264845 </v>
    <v>       0.67040000       0.33673000       0.00321000 </v>
    <v>       0.66494304       0.33085229       0.36644380 </v>
    <v>       0.66728000       0.99998000       0.12246000 </v>
    <v>       0.99806000       0.33495000       0.12235000 </v>
    <v>       0.33675000       0.33238000       0.12261000 </v>
    <v>       0.49936276       0.14652796       0.44691521 </v>
   </varray>
  </structure>
  <varray name="primitive_index" >
   <v type="int" >        1 </v>
   <v type="int" >        2 </v>
   <v type="int" >        3 </v>
   <v type="int" >        4 </v>
   <v type="int" >        5 </v>
   <v type="int" >        6 </v>
   <v type="int" >        7 </v>
   <v type="int" >        8 </v>
   <v type="int" >        9 </v>
   <v type="int" >       10 </v>
   <v type="int" >       11 </v>
   <v type="int" >       12 </v>
   <v type="int" >       13 </v>
   <v type="int" >       14 </v>
   <v type="int" >       15 </v>
   <v type="int" >       16 </v>
   <v type="int" >       17 </v>
   <v type="int" >       18 </v>
   <v type="int" >       19 </v>
   <v type="int" >       20 </v>
   <v type="int" >       21 </v>
   <v type="int" >       22 </v>
   <v type="int" >       23 </v>
   <v type="int" >       24 </v>
   <v type="int" >       25 </v>
   <v type="int" >       26 </v>
   <v type="int" >       27 </v>
   <v type="int" >       28 </v>
   <v type="int" >       29 </v>
   <v type="int" >       30 </v>
   <v type="int" >       31 </v>
   <v type="int" >       32 </v>
   <v type="int" >       33 </v>
   <v type="int" >       34 </v>
   <v type="int" >       35 </v>
   <v type="int" >       36 </v>
   <v type="int" >       37 </v>
   <v type="int" >       38 </v>
   <v type="int" >       39 </v>
   <v type="int" >       40 </v>
   <v type="int" >       41 </v>
   <v type="int" >       42 </v>
   <v type="int" >       43 </v>
   <v type="int" >       44 </v>
   <v type="int" >       45 </v>
   <v type="int" >       46 </v>
   <v type="int" >       47 </v>
   <v type="int" >       48 </v>
   <v type="int" >       49 </v>
   <v type="int" >       50 </v>
   <v type="int" >       51 </v>
   <v type="int" >       52 </v>
   <v type="int" >       53 </v>
   <v type="int" >       54 </v>
   <v type="int" >       55 </v>
   <v type="int" >       56 </v>
   <v type="int" >       57 </v>
   <v type="int" >       58 </v>
   <v type="int" >       59 </v>
   <v type="int" >       60 </v>
   <v type="int" >       61 </v>
   <v type="int" >       62 </v>
   <v type="int" >       63 </v>
  </varray>
 </primitive_cell>
 <kpoints>
  <generation param="Gamma">
   <v type="int" name="divisions">       4        4        1 </v>
   <v name="usershift">      0.00000000       0.00000000       0.00000000 </v>
   <v name="genvec1">      0.25000000       0.00000000       0.00000000 </v>
   <v name="genvec2">      0.00000000       0.25000000       0.00000000 </v>
   <v name="genvec3">      0.00000000       0.00000000       1.00000000 </v>
   <v name="shift">      0.00000000       0.00000000       0.00000000 </v>
  </generation>
  <varray name="kpointlist" >
   <v>       0.00000000       0.00000000       0.00000000 </v>
   <v>       0.25000000       0.00000000       0.00000000 </v>
   <v>       0.50000000       0.00000000       0.00000000 </v>
   <v>       0.00000000       0.25000000       0.00000000 </v>
   <v>       0.25000000       0.25000000       0.00000000 </v>
   <v>       0.50000000       0.25000000       0.00000000 </v>
   <v>      -0.25000000       0.25000000       0.00000000 </v>
   <v>       0.00000000       0.50000000       0.00000000 </v>
   <v>       0.25000000       0.50000000       0.00000000 </v>
   <v>       0.50000000       0.50000000       0.00000000 </v>
  </varray>
  <varray name="weights" >
   <v>       0.06250000 </v>
   <v>       0.12500000 </v>
   <v>       0.06250000 </v>
   <v>       0.12500000 </v>
   <v>       0.12500000 </v>
   <v>       0.12500000 </v>
   <v>       0.12500000 </v>
   <v>       0.06250000 </v>
   <v>       0.12500000 </v>
   <v>       0.06250000 </v>
  </varray>
  <varray name="tetrahedronlist"  type="int" >
   <v type="int" >        2        4        8        9        9 </v>
   <v type="int" >        2        4        7        9        9 </v>
   <v type="int" >        2        4        7        7        9 </v>
   <v type="int" >        2        4        8        8        9 </v>
   <v type="int" >        2        4        4        8        9 </v>
   <v type="int" >        2        4        4        7        9 </v>
   <v type="int" >        2        4        5        5        8 </v>
   <v type="int" >        2        5        5        8        9 </v>
   <v type="int" >        2        5        8        9        9 </v>
   <v type="int" >        2        4        4        5        8 </v>
   <v type="int" >        2        4        5        8        8 </v>
   <v type="int" >        2        5        8        8        9 </v>
   <v type="int" >        2        1        2        2        4 </v>
   <v type="int" >        2        2        2        4        5 </v>
   <v type="int" >        2        2        4        5        5 </v>
   <v type="int" >        2        1        1        2        4 </v>
   <v type="int" >        2        1        2        4        4 </v>
   <v type="int" >        2        2        4        4        5 </v>
   <v type="int" >        2        1        4        7        7 </v>
   <v type="int" >        2        1        2        7        7 </v>
   <v type="int" >        2        1        2        2        7 </v>
   <v type="int" >        2        1        4        4        7 </v>
   <v type="int" >        2        1        1        4        7 </v>
   <v type="int" >        2        1        1        2        7 </v>
   <v type="int" >        2        7        9       10       10 </v>
   <v type="int" >        2        6        7       10       10 </v>
   <v type="int" >        2        6        6        7       10 </v>
   <v type="int" >        2        7        9        9       10 </v>
   <v type="int" >        2        7        7        9       10 </v>
   <v type="int" >        2        6        7        7       10 </v>
   <v type="int" >        2        5        6        6        9 </v>
   <v type="int" >        2        6        6        9       10 </v>
   <v type="int" >        2        6        9       10       10 </v>
   <v type="int" >        2        5        5        6        9 </v>
   <v type="int" >        2        5        6        9        9 </v>
   <v type="int" >        2        6        9        9       10 </v>
   <v type="int" >        2        2        3        3        5 </v>
   <v type="int" >        2        3        3        5        6 </v>
   <v type="int" >        2        3        5        6        6 </v>
   <v type="int" >        2        2        2        3        5 </v>
   <v type="int" >        2        2        3        5        5 </v>
   <v type="int" >        2        3        5        5        6 </v>
   <v type="int" >        2        2        6        6        7 </v>
   <v type="int" >        2        2        3        6        6 </v>
   <v type="int" >        2        2        3        3        6 </v>
   <v type="int" >        2        2        6        7        7 </v>
   <v type="int" >        2        2        2        6        7 </v>
   <v type="int" >        2        2        2        3        6 </v>
  </varray>
  <i name="volumeweight">      0.01041667 </i>
 </kpoints>
 <parameters>
  <separator name="general" >
   <i type="string" name="SYSTEM">ni3al</i>
   <i type="logical" name="LCOMPAT"> F  </i>
  </separator>
  <separator name="electronic" >
   <i type="string" name="PREC">accura</i>
   <i name="ENMAX">    450.00000000</i>
   <i name="ENAUG">    519.42400000</i>
   <i name="EDIFF">      0.00001000</i>
   <i type="int" name="IALGO">    38</i>
   <i type="int" name="IWAVPR">    10</i>
   <i type="int" name="NBANDS">   372</i>
   <i type="int" name="NBANDSLOW">    -1</i>
   <i type="int" name="NBANDSHIGH">    -1</i>
   <i name="NELECT">    566.00000000</i>
   <i type="int" name="TURBO">     0</i>
   <i type="int" name="IRESTART">     0</i>
   <i type="int" name="NREBOOT">     0</i>
   <i type="int" name="NMIN">     0</i>
   <i name="EREF">      0.00000000</i>
   <separator name="electronic smearing" >
    <i type="int" name="ISMEAR">    -5</i>
    <i name="SIGMA">      0.10000000</i>
    <i name="KSPACING">      0.50000000</i>
    <i type="logical" name="KGAMMA"> T  </i>
    <i type="logical" name="KBLOWUP"> T  </i>
   </separator>
   <separator name="electronic projectors" >
    <i type="logical" name="LREAL"> T  </i>
    <v name="ROPT">     -0.00025000     -0.00025000     -0.00025000</v>
    <i type="int" name="LMAXPAW">  -100</i>
    <i type="int" name="LMAXMIX">     4</i>
    <i type="logical" name="NLSPLINE"> F  </i>
   </separator>
   <separator name="electronic startup" >
    <i type="int" name="ISTART">     0</i>
    <i type="int" name="ICHARG">     2</i>
    <i type="int" name="INIWAV">     1</i>
   </separator>
   <separator name="electronic spin" >
    <i type="int" name="ISPIN">     2</i>
    <i type="logical" name="LNONCOLLINEAR"> F  </i>
    <v name="MAGMOM">      1.00000000      1.00000000      1.00000000      1.00000000      1.00000000      1.00000000      1.00000000      1.00000000      1.00000000      1.00000000      1.00000000      1.00000000      1.00000000      1.00000000      1.00000000      1.00000000      1.00000000      1.00000000      1.00000000      1.00000000
      1.00000000      1.00000000      1.00000000      1.00000000      1.00000000      1.00000000      1.00000000      1.00000000      1.00000000      1.00000000      1.00000000      1.00000000      1.00000000      1.00000000      1.00000000      1.00000000      1.00000000      1.00000000      1.00000000      1.00000000
      1.00000000      1.00000000      1.00000000      1.00000000      1.00000000      1.00000000      1.00000000      1.00000000      1.00000000      1.00000000      1.00000000      1.00000000      1.00000000      1.00000000      1.00000000      1.00000000      1.00000000      1.00000000      1.00000000      1.00000000
      1.00000000      1.00000000      1.00000000</v>
    <i name="NUPDOWN">     -1.00000000</i>
    <i type="logical" name="LSORBIT"> F  </i>
    <v name="SAXIS">      0.00000000      0.00000000      1.00000000</v>
    <i type="logical" name="LSPIRAL"> F  </i>
    <v name="QSPIRAL">      0.00000000      0.00000000      0.00000000</v>
    <i type="logical" name="LZEROZ"> F  </i>
   </separator>
   <separator name="electronic exchange-correlation" >
    <i type="logical" name="LASPH"> F  </i>
    <i type="logical" name="LMETAGGA"> F  </i>
   </separator>
   <separator name="electronic convergence" >
    <i type="int" name="NELM">   150</i>
    <i type="int" name="NELMDL">    -5</i>
    <i type="int" name="NELMIN">     2</i>
    <i name="ENINI">    450.00000000</i>
    <separator name="electronic convergence detail" >
     <i type="logical" name="LDIAG"> T  </i>
     <i type="logical" name="LSUBROT"> F  </i>
     <i name="WEIMIN">      0.00000000</i>
     <i name="EBREAK">      0.00000001</i>
     <i name="DEPER">      0.30000000</i>
     <i type="int" name="NRMM">     4</i>
     <i name="TIME">      0.40000000</i>
    </separator>
   </separator>
   <separator name="electronic mixer" >
    <i name="AMIX">      0.05000000</i>
    <i name="BMIX">      0.00010000</i>
    <i name="AMIN">      0.01000000</i>
    <i name="AMIX_MAG">      0.20000000</i>
    <i name="BMIX_MAG">      0.00010000</i>
    <separator name="electronic mixer details" >
     <i type="int" name="IMIX">     4</i>
     <i type="logical" name="MIXFIRST"> F  </i>
     <i type="int" name="MAXMIX">   -45</i>
     <i name="WC">    100.00000000</i>
     <i type="int" name="INIMIX">     1</i>
     <i type="int" name="MIXPRE">     1</i>
     <i type="int" name="MREMOVE">     5</i>
    </separator>
   </separator>
   <separator name="electronic dipolcorrection" >
    <i type="logical" name="LDIPOL"> T  </i>
    <i type="logical" name="LMONO"> F  </i>
    <i type="int" name="IDIPOL">     3</i>
    <i name="EPSILON">      1.00000000</i>
    <v name="DIPOL">   -100.00000000   -100.00000000   -100.00000000</v>
    <i name="EFIELD">      0.00000000</i>
   </separator>
  </separator>
  <separator name="grids" >
   <i type="int" name="NGX">    60</i>
   <i type="int" name="NGY">    60</i>
   <i type="int" name="NGZ">   168</i>
   <i type="int" name="NGXF">   120</i>
   <i type="int" name="NGYF">   120</i>
   <i type="int" name="NGZF">   336</i>
   <i type="logical" name="ADDGRID"> F  </i>
  </separator>
  <separator name="ionic" >
   <i type="int" name="NSW">     0</i>
   <i type="int" name="IBRION">    -1</i>
   <i type="int" name="MDALGO">     0</i>
   <i type="int" name="ISIF">     2</i>
   <i name="PSTRESS">      0.00000000</i>
   <i name="EDIFFG">      0.00010000</i>
   <i type="int" name="NFREE">     0</i>
   <i name="POTIM">      0.50000000</i>
   <i name="SMASS">     -3.00000000</i>
   <i name="SCALEE">      1.00000000</i>
  </separator>
  <separator name="ionic md" >
   <i name="TEBEG">      0.00010000</i>
   <i name="TEEND">      0.00010000</i>
   <i type="int" name="NBLOCK">     1</i>
   <i type="int" name="KBLOCK">     1</i>
   <i type="int" name="NPACO">   256</i>
   <i name="APACO">     10.00000000</i>
  </separator>
  <separator name="symmetry" >
   <i type="int" name="ISYM">     2</i>
   <i name="SYMPREC">      0.00001000</i>
  </separator>
  <separator name="dos" >
   <i type="int" name="LORBIT">     0</i>
   <v name="RWIGS">     -1.00000000     -1.00000000     -1.00000000</v>
   <i type="int" name="NEDOS">   301</i>
   <i name="EMIN">     10.00000000</i>
   <i name="EMAX">    -10.00000000</i>
   <i name="EFERMI">      0.00000000</i>
  </separator>
  <separator name="writing" >
   <i type="int" name="NWRITE">     2</i>
   <i type="logical" name="LWAVE"> T  </i>
   <i type="logical" name="LDOWNSAMPLE"> F  </i>
   <i type="logical" name="LCHARG"> T  </i>
   <i type="logical" name="LPARD"> F  </i>
   <i type="logical" name="LVTOT"> F  </i>
   <i type="logical" name="LVHAR"> F  </i>
   <i type="logical" name="LELF"> T  </i>
   <i type="logical" name="LOPTICS"> F  </i>
   <v name="STM">      0.00000000      0.00000000      0.00000000      0.00000000      0.00000000      0.00000000      0.00000000</v>
  </separator>
  <separator name="performance" >
   <i type="int" name="NPAR">     4</i>
   <i type="int" name="NSIM">     4</i>
   <i type="int" name="NBLK">    -1</i>
   <i type="logical" name="LPLANE"> T  </i>
   <i type="logical" name="LSCALAPACK"> T  </i>
   <i type="logical" name="LSCAAWARE"> F  </i>
   <i type="logical" name="LSCALU"> F  </i>
   <i type="logical" name="LASYNC"> F  </i>
   <i type="logical" name="LORBITALREAL"> F  </i>
  </separator>
  <separator name="miscellaneous" >
   <i type="int" name="IDIOT">     3</i>
   <i type="int" name="PHON_NSTRUCT">    -1</i>
   <i type="logical" name="LMUSIC"> F  </i>
   <v name="POMASS">     55.84700000     51.99600000    207.20000000</v>
   <v name="DARWINR">      0.00000000      0.00000000      0.00000000</v>
   <v name="DARWINV">      1.00000000      1.00000000      1.00000000</v>
   <i type="logical" name="LCORR"> T  </i>
  </separator>
  <i type="logical" name="GGA_COMPAT"> T  </i>
  <i type="logical" name="LBERRY"> F  </i>
  <i type="int" name="ICORELEVEL">     0</i>
  <i type="logical" name="LDAU"> F  </i>
  <i type="int" name="I_CONSTRAINED_M">     0</i>
  <separator name="electronic exchange-correlation" >
   <i type="string" name="GGA">--</i>
   <i type="int" name="VOSKOWN">     0</i>
   <i type="logical" name="LHFCALC"> F  </i>
   <i type="string" name="PRECFOCK"></i>
   <i type="logical" name="LSYMGRAD"> F  </i>
   <i type="logical" name="LHFONE"> F  </i>
   <i type="logical" name="LRHFCALC"> F  </i>
   <i type="logical" name="LTHOMAS"> F  </i>
   <i type="logical" name="LMODELHF"> F  </i>
   <i type="logical" name="LFOCKACE"> F  </i>
   <i name="ENCUT4O">     -1.00000000</i>
   <i type="int" name="EXXOEP">     0</i>
   <i type="int" name="FOURORBIT">     0</i>
   <i name="AEXX">      0.00000000</i>
   <i name="HFALPHA">      0.00000000</i>
   <i name="MCALPHA">      0.00000000</i>
   <i name="ALDAX">      1.00000000</i>
   <i name="AGGAX">      1.00000000</i>
   <i name="ALDAC">      1.00000000</i>
   <i name="AGGAC">      1.00000000</i>
   <i type="int" name="NKREDX">     1</i>
   <i type="int" name="NKREDY">     1</i>
   <i type="int" name="NKREDZ">     1</i>
   <i type="logical" name="SHIFTRED"> F  </i>
   <i type="logical" name="ODDONLY"> F  </i>
   <i type="logical" name="EVENONLY"> F  </i>
   <i type="int" name="LMAXFOCK">     0</i>
   <i type="int" name="NMAXFOCKAE">     0</i>
   <i type="logical" name="LFOCKAEDFT"> F  </i>
   <i name="HFSCREEN">      0.00000000</i>
   <i name="HFSCREENC">      0.00000000</i>
   <i type="int" name="NBANDSGWLOW">     0</i>
  </separator>
  <separator name="vdW DFT" >
   <i type="logical" name="LUSE_VDW"> F  </i>
   <i name="Zab_VDW">     -0.84910000</i>
   <i name="PARAM1">      0.12340000</i>
   <i name="PARAM2">      1.00000000</i>
   <i name="PARAM3">      0.00000000</i>
  </separator>
  <separator name="model GW" >
   <i type="int" name="MODEL_GW">     0</i>
   <i name="MODEL_EPS0">     16.29231243</i>
   <i name="MODEL_ALPHA">      1.00000000</i>
  </separator>
  <separator name="linear response parameters" >
   <i type="logical" name="LEPSILON"> F  </i>
   <i type="logical" name="LRPA"> F  </i>
   <i type="logical" name="LNABLA"> F  </i>
   <i type="logical" name="LVEL"> F  </i>
   <i name="CSHIFT">      0.10000000</i>
   <i name="OMEGAMAX">     -1.00000000</i>
   <i name="DEG_THRESHOLD">      0.00200000</i>
   <i name="RTIME">     -0.10000000</i>
   <i name="WPLASMAI">      0.00000000</i>
   <v name="DFIELD">      0.00000000      0.00000000      0.00000000</v>
   <v name="WPLASMA">      0.00000000      0.00000000      0.00000000      0.00000000      0.00000000      0.00000000      0.00000000      0.00000000      0.00000000</v>
  </separator>
  <separator name="orbital magnetization" >
   <i type="logical" name="NUCIND"> F  </i>
   <v name="MAGPOS">      0.00000000      0.00000000      0.00000000</v>
   <i type="logical" name="LNICSALL"> T  </i>
   <i type="logical" name="ORBITALMAG"> F  </i>
   <i type="logical" name="LMAGBLOCH"> F  </i>
   <i type="logical" name="LCHIMAG"> F  </i>
   <i type="logical" name="LGAUGE"> T  </i>
   <i type="int" name="MAGATOM">     0</i>
   <v name="MAGDIPOL">      0.00000000      0.00000000      0.00000000</v>
   <v name="AVECCONST">      0.00000000      0.00000000      0.00000000</v>
  </separator>
  <separator name="response functions" >
   <i type="logical" name="LFINITE_TEMPERATURE"> F  </i>
   <i type="logical" name="LADDER"> F  </i>
   <i type="logical" name="LRPAFORCE"> F  </i>
   <i type="logical" name="LFXC"> F  </i>
   <i type="logical" name="LHARTREE"> T  </i>
   <i type="int" name="IBSE">     0</i>
   <v type="int" name="KPOINT">    -1     0     0     0</v>
   <i type="logical" name="LTCTC"> F  </i>
   <i type="logical" name="LTCTE"> F  </i>
   <i type="logical" name="LTETE"> F  </i>
   <i type="logical" name="LTRIPLET"> F  </i>
   <i type="logical" name="LFXCEPS"> F  </i>
   <i type="logical" name="LFXHEG"> F  </i>
   <i type="int" name="NATURALO">     2</i>
   <i type="logical" name="LHOLEGF"> F  </i>
   <i type="logical" name="L2ORDER"> F  </i>
   <i type="logical" name="LDMP1"> F  </i>
   <i type="logical" name="LMP2LT"> F  </i>
   <i type="logical" name="LSMP2LT"> F  </i>
   <i type="logical" name="LGWLF"> F  </i>
   <i name="ENCUTGW">     -2.00000000</i>
   <i name="ENCUTGWSOFT">     -2.00000000</i>
   <i name="ENCUTLF">     -1.00000000</i>
   <i type="logical" name="LESF_SPLINES"> F  </i>
   <i type="int" name="LMAXMP2">    -1</i>
   <i name="SCISSOR">      0.00000000</i>
   <i type="int" name="NOMEGA">     0</i>
   <i type="int" name="NOMEGAR">     0</i>
   <i type="int" name="NBANDSGW">    -1</i>
   <i type="int" name="NBANDSO">    -1</i>
   <i type="int" name="NBANDSV">    -1</i>
   <i type="int" name="NELMGW">     1</i>
   <i type="int" name="NELMHF">     1</i>
   <i type="int" name="DIM">     3</i>
   <i type="int" name="IESPILON">     4</i>
   <i type="int" name="ANTIRES">     0</i>
   <i name="OMEGAMAX">    -30.00000000</i>
   <i name="OMEGAMIN">    -30.00000000</i>
   <i name="OMEGATL">   -200.00000000</i>
   <i type="int" name="OMEGAGRID">     0</i>
   <i name="CSHIFT">     -0.10000000</i>
   <i type="logical" name="LSELFENERGY"> F  </i>
   <i type="logical" name="LSPECTRAL"> F  </i>
   <i type="logical" name="LSPECTRALGW"> F  </i>
   <i type="logical" name="LSINGLES"> F  </i>
   <i type="logical" name="LFERMIGW"> F  </i>
   <i type="logical" name="ODDONLYGW"> F  </i>
   <i type="logical" name="EVENONLYGW"> F  </i>
   <i type="int" name="NKREDLFX">     1</i>
   <i type="int" name="NKREDLFY">     1</i>
   <i type="int" name="NKREDLFZ">     1</i>
   <i type="int" name="MAXMEM">  2800</i>
   <i type="int" name="TELESCOPE">     0</i>
   <i type="int" name="NTAUPAR">    -1</i>
   <i type="int" name="NOMEGAPAR">    -1</i>
   <i name="DAMP_NEWTON">      0.80000001</i>
   <i name="LAMBDA">      1.00000000</i>
  </separator>
  <separator name="External order field" >
   <i name="OFIELD_KAPPA">      0.00000000</i>
   <v name="OFIELD_K">      0.00000000      0.00000000      0.00000000</v>
   <i name="OFIELD_Q6_NEAR">      0.00000000</i>
   <i name="OFIELD_Q6_FAR">      0.00000000</i>
   <i name="OFIELD_A">      0.00000000</i>
  </separator>
  <separator name="optional k-points parameters" >
   <i type="int" name="KPOINTS_OPT_MODE">     1</i>
   <i type="logical" name="LKPOINTS_OPT"> F  </i>
  </separator>
  <separator name="solvation model" >
   <i type="logical" name="LSOL"> F  </i>
  </separator>
 </parameters>
 <atominfo>
  <atoms>      63 </atoms>
  <types>       3 </types>
  <array name="atoms" >
   <dimension dim="1">ion</dimension>
   <field type="string">element</field>
   <field type="int">atomtype</field>
   <set>
    <rc><c>Fe</c><c>   1</c></rc>
    <rc><c>Fe</c><c>   1</c></rc>
    <rc><c>Fe</c><c>   1</c></rc>
    <rc><c>Fe</c><c>   1</c></rc>
    <rc><c>Fe</c><c>   1</c></rc>
    <rc><c>Fe</c><c>   1</c></rc>
    <rc><c>Fe</c><c>   1</c></rc>
    <rc><c>Fe</c><c>   1</c></rc>
    <rc><c>Fe</c><c>   1</c></rc>
    <rc><c>Fe</c><c>   1</c></rc>
    <rc><c>Fe</c><c>   1</c></rc>
    <rc><c>Fe</c><c>   1</c></rc>
    <rc><c>Fe</c><c>   1</c></rc>
    <rc><c>Fe</c><c>   1</c></rc>
    <rc><c>Fe</c><c>   1</c></rc>
    <rc><c>Fe</c><c>   1</c></rc>
    <rc><c>Fe</c><c>   1</c></rc>
    <rc><c>Fe</c><c>   1</c></rc>
    <rc><c>Fe</c><c>   1</c></rc>
    <rc><c>Fe</c><c>   1</c></rc>
    <rc><c>Fe</c><c>   1</c></rc>
    <rc><c>Fe</c><c>   1</c></rc>
    <rc><c>Fe</c><c>   1</c></rc>
    <rc><c>Fe</c><c>   1</c></rc>
    <rc><c>Fe</c><c>   1</c></rc>
    <rc><c>Fe</c><c>   1</c></rc>
    <rc><c>Fe</c><c>   1</c></rc>
    <rc><c>Fe</c><c>   1</c></rc>
    <rc><c>Fe</c><c>   1</c></rc>
    <rc><c>Fe</c><c>   1</c></rc>
    <rc><c>Fe</c><c>   1</c></rc>
    <rc><c>Fe</c><c>   1</c></rc>
    <rc><c>Fe</c><c>   1</c></rc>
    <rc><c>Fe</c><c>   1</c></rc>
    <rc><c>Fe</c><c>   1</c></rc>
    <rc><c>Fe</c><c>   1</c></rc>
    <rc><c>Fe</c><c>   1</c></rc>
    <rc><c>Fe</c><c>   1</c></rc>
    <rc><c>Fe</c><c>   1</c></rc>
    <rc><c>Fe</c><c>   1</c></rc>
    <rc><c>Fe</c><c>   1</c></rc>
    <rc><c>Fe</c><c>   1</c></rc>
    <rc><c>Fe</c><c>   1</c></rc>
    <rc><c>Fe</c><c>   1</c></rc>
    <rc><c>Fe</c><c>   1</c></rc>
    <rc><c>Fe</c><c>   1</c></rc>
    <rc><c>Fe</c><c>   1</c></rc>
    <rc><c>Fe</c><c>   1</c></rc>
    <rc><c>Cr</c><c>   2</c></rc>
    <rc><c>Cr</c><c>   2</c></rc>
    <rc><c>Cr</c><c>   2</c></rc>
    <rc><c>Cr</c><c>   2</c></rc>
    <rc><c>Cr</c><c>   2</c></rc>
    <rc><c>Cr</c><c>   2</c></rc>
    <rc><c>Cr</c><c>   2</c></rc>
    <rc><c>Cr</c><c>   2</c></rc>
    <rc><c>Cr</c><c>   2</c></rc>
    <rc><c>Cr</c><c>   2</c></rc>
    <rc><c>Cr</c><c>   2</c></rc>
    <rc><c>Cr</c><c>   2</c></rc>
    <rc><c>Cr</c><c>   2</c></rc>
    <rc><c>Cr</c><c>   2</c></rc>
    <rc><c>Pb</c><c>   3</c></rc>
   </set>
  </array>
  <array name="atomtypes" >
   <dimension dim="1">type</dimension>
   <field type="int">atomspertype</field>
   <field type="string">element</field>
   <field>mass</field>
   <field>valence</field>
   <field type="string">pseudopotential</field>
   <set>
    <rc><c>  48</c><c>Fe</c><c>     55.84700000</c><c>      8.00000000</c><c>  PAW_PBE Fe 06Sep2000                  </c></rc>
    <rc><c>  14</c><c>Cr</c><c>     51.99600000</c><c>     12.00000000</c><c>  PAW_PBE Cr_pv 02Aug2007               </c></rc>
    <rc><c>   1</c><c>Pb</c><c>    207.20000000</c><c>     14.00000000</c><c>  PAW_PBE Pb_d 06Sep2000                </c></rc>
   </set>
  </array>
 </atominfo>
 <structure name="initialpos" >
  <crystal>
   <varray name="basis" >
    <v>       8.53269958       0.00000000       0.00000000 </v>
    <v>      -0.00051933       8.49699972       0.00000000 </v>
    <v>       0.00000000       0.00000000      23.59499931 </v>
   </varray>
   <i name="volume">   1710.69280467 </i>
   <varray name="rec_basis" >
    <v>       0.11719620       0.00000716       0.00000000 </v>
    <v>       0.00000000       0.11768860       0.00000000 </v>
    <v>       0.00000000       0.00000000       0.04238186 </v>
   </varray>
  </crystal>
  <varray name="positions" >
   <v>       0.00086000       0.99993000       0.24271000 </v>
   <v>       0.16563197       0.16689272       0.30267213 </v>
   <v>       0.49945875       0.16083156       0.30209605 </v>
   <v>       0.66822000       0.00107000       0.24272000 </v>
   <v>       0.83567803       0.16761142       0.30158044 </v>
   <v>       0.00044000       0.33497000       0.24240000 </v>
   <v>       0.16908596       0.50432933       0.30359207 </v>
   <v>       0.33469000       0.33305000       0.24267000 </v>
   <v>       0.49805898       0.50477233       0.30286473 </v>
   <v>       0.83356719       0.50066360       0.30142484 </v>
   <v>       0.16842387       0.83125233       0.30398063 </v>
   <v>       0.33342000       0.66555000       0.24261000 </v>
   <v>       0.83608298       0.83258393       0.30181335 </v>
   <v>       0.00064000       0.00119000       0.00199000 </v>
   <v>       0.00160129       0.00355220       0.36072032 </v>
   <v>       0.16843000       0.16962000       0.06269000 </v>
   <v>       0.33460000       0.00297000       0.00254000 </v>
   <v>       0.32931288       0.00423711       0.36192236 </v>
   <v>       0.50463000       0.16850000       0.06120000 </v>
   <v>       0.83272000       0.16670000       0.06193000 </v>
   <v>       0.00004000       0.33467000       0.00213000 </v>
   <v>       0.00341893       0.33559974       0.35955122 </v>
   <v>       0.16757000       0.49895000       0.06268000 </v>
   <v>       0.50099000       0.49896000       0.06206000 </v>
   <v>       0.83393000       0.50234000       0.06235000 </v>
   <v>       0.00121000       0.66785000       0.00188000 </v>
   <v>       0.99436039       0.66453337       0.36064469 </v>
   <v>       0.16792000       0.83462000       0.06228000 </v>
   <v>       0.33437000       0.66664000       0.00225000 </v>
   <v>       0.50152000       0.83563000       0.06217000 </v>
   <v>       0.66753000       0.66705000       0.00175000 </v>
   <v>       0.66820935       0.66599714       0.35878875 </v>
   <v>       0.83293000       0.83584000       0.06235000 </v>
   <v>       0.00121000       0.00098000       0.12225000 </v>
   <v>       0.16700000       0.16811000       0.18239000 </v>
   <v>       0.33470000       0.00227000       0.12192000 </v>
   <v>       0.50174000       0.16716000       0.18263000 </v>
   <v>       0.83421000       0.16639000       0.18283000 </v>
   <v>       0.16964000       0.49868000       0.18209000 </v>
   <v>       0.50219000       0.50081000       0.18317000 </v>
   <v>       0.66741000       0.33395000       0.12233000 </v>
   <v>       0.83134000       0.50253000       0.18283000 </v>
   <v>       0.00132000       0.66795000       0.12253000 </v>
   <v>       0.16898000       0.83509000       0.18243000 </v>
   <v>       0.33446000       0.66703000       0.12223000 </v>
   <v>       0.49971000       0.83538000       0.18278000 </v>
   <v>       0.66698000       0.66840000       0.12259000 </v>
   <v>       0.83488000       0.83403000       0.18294000 </v>
   <v>       0.33558000       0.99863000       0.24353000 </v>
   <v>       0.66801000       0.33262000       0.24229000 </v>
   <v>       0.00448000       0.66739000       0.24217000 </v>
   <v>       0.49537595       0.83504644       0.30398347 </v>
   <v>       0.66521000       0.67351000       0.24327000 </v>
   <v>       0.66620000       0.99680000       0.00000000 </v>
   <v>       0.66424298       0.99383088       0.36161919 </v>
   <v>       0.33213000       0.33386000       0.00135000 </v>
   <v>       0.33640112       0.33513058       0.36264845 </v>
   <v>       0.67040000       0.33673000       0.00321000 </v>
   <v>       0.66494304       0.33085229       0.36644380 </v>
   <v>       0.66728000       0.99998000       0.12246000 </v>
   <v>       0.99806000       0.33495000       0.12235000 </v>
   <v>       0.33675000       0.33238000       0.12261000 </v>
   <v>       0.49936276       0.14652796       0.44691521 </v>
  </varray>
  <varray name="selective"  type="logical" >
   <v type="logical" >  F  F  F </v>
   <v type="logical" >  T  T  T </v>
   <v type="logical" >  T  T  T </v>
   <v type="logical" >  F  F  F </v>
   <v type="logical" >  T  T  T </v>
   <v type="logical" >  F  F  F </v>
   <v type="logical" >  T  T  T </v>
   <v type="logical" >  F  F  F </v>
   <v type="logical" >  T  T  T </v>
   <v type="logical" >  T  T  T </v>
   <v type="logical" >  T  T  T </v>
   <v type="logical" >  F  F  F </v>
   <v type="logical" >  T  T  T </v>
   <v type="logical" >  F  F  F </v>
   <v type="logical" >  T  T  T </v>
   <v type="logical" >  F  F  F </v>
   <v type="logical" >  F  F  F </v>
   <v type="logical" >  T  T  T </v>
   <v type="logical" >  F  F  F </v>
   <v type="logical" >  F  F  F </v>
   <v type="logical" >  F  F  F </v>
   <v type="logical" >  T  T  T </v>
   <v type="logical" >  F  F  F </v>
   <v type="logical" >  F  F  F </v>
   <v type="logical" >  F  F  F </v>
   <v type="logical" >  F  F  F </v>
   <v type="logical" >  T  T  T </v>
   <v type="logical" >  F  F  F </v>
   <v type="logical" >  F  F  F </v>
   <v type="logical" >  F  F  F </v>
   <v type="logical" >  F  F  F </v>
   <v type="logical" >  T  T  T </v>
   <v type="logical" >  F  F  F </v>
   <v type="logical" >  F  F  F </v>
   <v type="logical" >  F  F  F </v>
   <v type="logical" >  F  F  F </v>
   <v type="logical" >  F  F  F </v>
   <v type="logical" >  F  F  F </v>
   <v type="logical" >  F  F  F </v>
   <v type="logical" >  F  F  F </v>
   <v type="logical" >  F  F  F </v>
   <v type="logical" >  F  F  F </v>
   <v type="logical" >  F  F  F </v>
   <v type="logical" >  F  F  F </v>
   <v type="logical" >  F  F  F </v>
   <v type="logical" >  F  F  F </v>
   <v type="logical" >  F  F  F </v>
   <v type="logical" >  F  F  F </v>
   <v type="logical" >  F  F  F </v>
   <v type="logical" >  F  F  F </v>
   <v type="logical" >  F  F  F </v>
   <v type="logical" >  T  T  T </v>
   <v type="logical" >  F  F  F </v>
   <v type="logical" >  F  F  F </v>
   <v type="logical" >  T  T  T </v>
   <v type="logical" >  F  F  F </v>
   <v type="logical" >  T  T  T </v>
   <v type="logical" >  F  F  F </v>
   <v type="logical" >  T  T  T </v>
   <v type="logical" >  F  F  F </v>
   <v type="logical" >  F  F  F </v>
   <v type="logical" >  F  F  F </v>
   <v type="logical" >  T  T  T </v>
  </varray>
  <nose>
   <v>      -3.00000000       0.00000000       0.00010000       0.00010000 </v>
  </nose>
 </structure>
 <calculation>
  <scstep>
   <time name="dav">  194.82   28.03</time>
   <time name="total">  203.81   29.79</time>
   <dipole>
    <v name="dipole">      0.00000000       0.00000000      -0.00019765 </v>
    <i name="Tr[quadrupol]">  -7133.93437275 </i>
    <i name="Echarged">      0.00000000 </i>
    <i name="Edipol_quadrupol">      0.00000000 </i>
    <i name="Eion">      0.00000000 </i>
   </dipole>
   <energy>
    <i name="alphaZ">   1814.29443293 </i>
    <i name="ewald"> 207083.85421532 </i>
    <i name="hartreedc">-258271.75179795 </i>
    <i name="XCdc">    994.56995744 </i>
    <i name="pawpsdc">  46365.14764523 </i>
    <i name="pawaedc"> -47395.88140329 </i>
    <i name="eentropy">      0.00000000 </i>
    <i name="bandstr">   1758.01627388 </i>
    <i name="atom">  53259.27193834 </i>
    <i name="e_fr_energy">   5607.52126190 </i>
    <i name="e_wo_entrp">   5607.52126190 </i>
    <i name="e_0_energy">   5607.52126190 </i>
   </energy>
  </scstep>
  <scstep>
   <time name="dav">  185.22   26.60</time>
   <time name="total">  185.78   26.68</time>
   <dipole>
    <v name="dipole">      0.00000000       0.00000000      -0.00019765 </v>
    <i name="Tr[quadrupol]">  -7133.93437275 </i>
    <i name="Echarged">      0.00000000 </i>
    <i name="Edipol_quadrupol">      0.00000000 </i>
    <i name="Eion">      0.00000000 </i>
   </dipole>
   <energy>
    <i name="e_fr_energy">    -62.27278286 </i>
    <i name="e_wo_entrp">    -62.27278286 </i>
    <i name="e_0_energy">    -62.27278286 </i>
   </energy>
  </scstep>
  <scstep>
   <time name="dav">  189.62   27.22</time>
   <time name="total">  190.16   27.30</time>
   <dipole>
    <v name="dipole">      0.00000000       0.00000000      -0.00019765 </v>
    <i name="Tr[quadrupol]">  -7133.93437275 </i>
    <i name="Echarged">      0.00000000 </i>
    <i name="Edipol_quadrupol">      0.00000000 </i>
    <i name="Eion">      0.00000000 </i>
   </dipole>
   <energy>
    <i name="e_fr_energy">   -521.44899558 </i>
    <i name="e_wo_entrp">   -521.44899558 </i>
    <i name="e_0_energy">   -521.44899558 </i>
   </energy>
  </scstep>
  <scstep>
   <time name="dav">  290.59   41.72</time>
   <time name="total">  291.10   41.79</time>
   <dipole>
    <v name="dipole">      0.00000000       0.00000000      -0.00019765 </v>
    <i name="Tr[quadrupol]">  -7133.93437275 </i>
    <i name="Echarged">      0.00000000 </i>
    <i name="Edipol_quadrupol">      0.00000000 </i>
    <i name="Eion">      0.00000000 </i>
   </dipole>
   <energy>
    <i name="e_fr_energy">   -579.65733276 </i>
    <i name="e_wo_entrp">   -579.65733276 </i>
    <i name="e_0_energy">   -579.65733276 </i>
   </energy>
  </scstep>
  <scstep>
   <time name="dav">  275.06   39.54</time>
   <time name="total">  277.28   40.09</time>
   <dipole>
    <v name="dipole">      0.00000000       0.00000000      -0.00019765 </v>
    <i name="Tr[quadrupol]">  -7133.93437275 </i>
    <i name="Echarged">      0.00000000 </i>
    <i name="Edipol_quadrupol">      0.00000000 </i>
    <i name="Eion">      0.00000000 </i>
   </dipole>
   <energy>
    <i name="e_fr_energy">   -583.06407592 </i>
    <i name="e_wo_entrp">   -583.06407592 </i>
    <i name="e_0_energy">   -583.06407592 </i>
   </energy>
  </scstep>
  <scstep>
   <time name="dav">  301.36   43.23</time>
   <time name="total">  312.10   45.42</time>
   <dipole>
    <v name="dipole">      0.00000000       0.00000000       1.64880847 </v>
    <i name="Tr[quadrupol]">  -7156.88445602 </i>
    <i name="Echarged">      0.00000000 </i>
    <i name="Edipol_quadrupol">      0.00000000 </i>
    <i name="Eion">      0.00000000 </i>
   </dipole>
   <energy>
    <i name="e_fr_energy">   -726.04315057 </i>
    <i name="e_wo_entrp">   -726.04315057 </i>
    <i name="e_0_energy">   -726.04315057 </i>
   </energy>
  </scstep>
  <scstep>
   <time name="dav">  306.49   43.92</time>
   <time name="total">  316.47   46.06</time>
   <dipole>
    <v name="dipole">      0.00000000       0.00000000      -1.57615117 </v>
    <i name="Tr[quadrupol]">  -7145.49702066 </i>
    <i name="Echarged">      0.00000000 </i>
    <i name="Edipol_quadrupol">      0.00000000 </i>
    <i name="Eion">      0.00000000 </i>
   </dipole>
   <energy>
    <i name="e_fr_energy">   -689.90960508 </i>
    <i name="e_wo_entrp">   -689.90960508 </i>
    <i name="e_0_energy">   -689.90960508 </i>
   </energy>
  </scstep>
  <scstep>
   <time name="dav">  302.61   43.41</time>
   <time name="total">  313.07   45.56</time>
   <dipole>
    <v name="dipole">      0.00000000       0.00000000       0.61957819 </v>
    <i name="Tr[quadrupol]">  -7142.94560188 </i>
    <i name="Echarged">      0.00000000 </i>
    <i name="Edipol_quadrupol">      0.00000000 </i>
    <i name="Eion">      0.00000000 </i>
   </dipole>
   <energy>
    <i name="e_fr_energy">   -552.07251775 </i>
    <i name="e_wo_entrp">   -552.07251775 </i>
    <i name="e_0_energy">   -552.07251775 </i>
   </energy>
  </scstep>
  <scstep>
   <time name="dav">  286.81   41.08</time>
   <time name="total">  297.13   43.22</time>
   <dipole>
    <v name="dipole">      0.00000000       0.00000000       0.03045840 </v>
    <i name="Tr[quadrupol]">  -7142.06903498 </i>
    <i name="Echarged">      0.00000000 </i>
    <i name="Edipol_quadrupol">      0.00000000 </i>
    <i name="Eion">      0.00000000 </i>
   </dipole>
   <energy>
    <i name="e_fr_energy">   -531.16601008 </i>
    <i name="e_wo_entrp">   -531.16601008 </i>
    <i name="e_0_energy">   -531.16601008 </i>
   </energy>
  </scstep>
  <scstep>
   <time name="dav">  276.35   39.73</time>
   <time name="total">  286.76   41.88</time>
   <dipole>
    <v name="dipole">      0.00000000       0.00000000       0.23553605 </v>
    <i name="Tr[quadrupol]">  -7142.64964460 </i>
    <i name="Echarged">      0.00000000 </i>
    <i name="Edipol_quadrupol">      0.00000000 </i>
    <i name="Eion">      0.00000000 </i>
   </dipole>
   <energy>
    <i name="e_fr_energy">   -516.79500160 </i>
    <i name="e_wo_entrp">   -516.79500160 </i>
    <i name="e_0_energy">   -516.79500160 </i>
   </energy>
  </scstep>
  <scstep>
   <time name="dav">  249.74   35.86</time>
   <time name="total">  260.21   38.02</time>
   <dipole>
    <v name="dipole">      0.00000000       0.00000000      -0.01584524 </v>
    <i name="Tr[quadrupol]">  -7148.82717433 </i>
    <i name="Echarged">      0.00000000 </i>
    <i name="Edipol_quadrupol">      0.00000000 </i>
    <i name="Eion">      0.00000000 </i>
   </dipole>
   <energy>
    <i name="e_fr_energy">   -498.57271310 </i>
    <i name="e_wo_entrp">   -498.57271310 </i>
    <i name="e_0_energy">   -498.57271310 </i>
   </energy>
  </scstep>
  <scstep>
   <time name="dav">  246.07   35.32</time>
   <time name="total">  256.50   37.47</time>
   <dipole>
    <v name="dipole">      0.00000000       0.00000000       0.08662524 </v>
    <i name="Tr[quadrupol]">  -7154.80266286 </i>
    <i name="Echarged">      0.00000000 </i>
    <i name="Edipol_quadrupol">      0.00000000 </i>
    <i name="Eion">      0.00000000 </i>
   </dipole>
   <energy>
    <i name="e_fr_energy">   -492.64808550 </i>
    <i name="e_wo_entrp">   -492.64808550 </i>
    <i name="e_0_energy">   -492.64808550 </i>
   </energy>
  </scstep>
  <scstep>
   <time name="dav">  240.06   34.46</time>
   <time name="total">  250.46   36.61</time>
   <dipole>
    <v name="dipole">      0.00000000       0.00000000       0.09448505 </v>
    <i name="Tr[quadrupol]">  -7156.14883970 </i>
    <i name="Echarged">      0.00000000 </i>
    <i name="Edipol_quadrupol">      0.00000000 </i>
    <i name="Eion">      0.00000000 </i>
   </dipole>
   <energy>
    <i name="e_fr_energy">   -492.75211886 </i>
    <i name="e_wo_entrp">   -492.75211886 </i>
    <i name="e_0_energy">   -492.75211886 </i>
   </energy>
  </scstep>
  <scstep>
   <time name="dav">  268.09   38.49</time>
   <time name="total">  278.72   40.69</time>
   <dipole>
    <v name="dipole">      0.00000000       0.00000000       0.09401819 </v>
    <i name="Tr[quadrupol]">  -7155.74770669 </i>
    <i name="Echarged">      0.00000000 </i>
    <i name="Edipol_quadrupol">      0.00000000 </i>
    <i name="Eion">      0.00000000 </i>
   </dipole>
   <energy>
    <i name="e_fr_energy">   -492.56839940 </i>
    <i name="e_wo_entrp">   -492.56839940 </i>
    <i name="e_0_energy">   -492.56839940 </i>
   </energy>
  </scstep>
  <scstep>
   <time name="dav">  285.65   40.91</time>
   <time name="total">  295.71   43.06</time>
   <dipole>
    <v name="dipole">      0.00000000       0.00000000       0.11537205 </v>
    <i name="Tr[quadrupol]">  -7156.09749776 </i>
    <i name="Echarged">      0.00000000 </i>
    <i name="Edipol_quadrupol">      0.00000000 </i>
    <i name="Eion">      0.00000000 </i>
   </dipole>
   <energy>
    <i name="e_fr_energy">   -493.06208295 </i>
    <i name="e_wo_entrp">   -493.06208295 </i>
    <i name="e_0_energy">   -493.06208295 </i>
   </energy>
  </scstep>
  <scstep>
   <time name="dav">  293.80   42.08</time>
   <time name="total">  304.29   44.24</time>
   <dipole>
    <v name="dipole">      0.00000000       0.00000000       0.04039895 </v>
    <i name="Tr[quadrupol]">  -7158.43412128 </i>
    <i name="Echarged">      0.00000000 </i>
    <i name="Edipol_quadrupol">      0.00000000 </i>
    <i name="Eion">      0.00000000 </i>
   </dipole>
   <energy>
    <i name="e_fr_energy">   -495.42469163 </i>
    <i name="e_wo_entrp">   -495.42469163 </i>
    <i name="e_0_energy">   -495.42469163 </i>
   </energy>
  </scstep>
  <scstep>
   <time name="dav">  276.91   39.76</time>
   <time name="total">  287.44   41.93</time>
   <dipole>
    <v name="dipole">      0.00000000       0.00000000       0.19320575 </v>
    <i name="Tr[quadrupol]">  -7161.39636564 </i>
    <i name="Echarged">      0.00000000 </i>
    <i name="Edipol_quadrupol">      0.00000000 </i>
    <i name="Eion">      0.00000000 </i>
   </dipole>
   <energy>
    <i name="e_fr_energy">   -498.75303306 </i>
    <i name="e_wo_entrp">   -498.75303306 </i>
    <i name="e_0_energy">   -498.75303306 </i>
   </energy>
  </scstep>
  <scstep>
   <time name="dav">  288.55   41.44</time>
   <time name="total">  299.02   43.61</time>
   <dipole>
    <v name="dipole">      0.00000000       0.00000000       0.04413983 </v>
    <i name="Tr[quadrupol]">  -7163.19412805 </i>
    <i name="Echarged">      0.00000000 </i>
    <i name="Edipol_quadrupol">      0.00000000 </i>
    <i name="Eion">      0.00000000 </i>
   </dipole>
   <energy>
    <i name="e_fr_energy">   -501.54259175 </i>
    <i name="e_wo_entrp">   -501.54259175 </i>
    <i name="e_0_energy">   -501.54259175 </i>
   </energy>
  </scstep>
  <scstep>
   <time name="dav">  256.64   36.86</time>
   <time name="total">  267.13   39.03</time>
   <dipole>
    <v name="dipole">      0.00000000       0.00000000       0.10783004 </v>
    <i name="Tr[quadrupol]">  -7163.83508644 </i>
    <i name="Echarged">      0.00000000 </i>
    <i name="Edipol_quadrupol">      0.00000000 </i>
    <i name="Eion">      0.00000000 </i>
   </dipole>
   <energy>
    <i name="e_fr_energy">   -501.93965588 </i>
    <i name="e_wo_entrp">   -501.93965588 </i>
    <i name="e_0_energy">   -501.93965588 </i>
   </energy>
  </scstep>
  <scstep>
   <time name="dav">  280.98   40.31</time>
   <time name="total">  291.43   42.46</time>
   <dipole>
    <v name="dipole">      0.00000000       0.00000000       0.07123995 </v>
    <i name="Tr[quadrupol]">  -7164.12987437 </i>
    <i name="Echarged">      0.00000000 </i>
    <i name="Edipol_quadrupol">      0.00000000 </i>
    <i name="Eion">      0.00000000 </i>
   </dipole>
   <energy>
    <i name="e_fr_energy">   -502.70130311 </i>
    <i name="e_wo_entrp">   -502.70130311 </i>
    <i name="e_0_energy">   -502.70130311 </i>
   </energy>
  </scstep>
  <scstep>
   <time name="dav">  287.03   41.21</time>
   <time name="total">  297.57   43.38</time>
   <dipole>
    <v name="dipole">      0.00000000       0.00000000       0.10024021 </v>
    <i name="Tr[quadrupol]">  -7163.57122355 </i>
    <i name="Echarged">      0.00000000 </i>
    <i name="Edipol_quadrupol">      0.00000000 </i>
    <i name="Eion">      0.00000000 </i>
   </dipole>
   <energy>
    <i name="e_fr_energy">   -502.82789018 </i>
    <i name="e_wo_entrp">   -502.82789018 </i>
    <i name="e_0_energy">   -502.82789018 </i>
   </energy>
  </scstep>
  <scstep>
   <time name="dav">  291.64   41.77</time>
   <time name="total">  302.20   43.95</time>
   <dipole>
    <v name="dipole">      0.00000000       0.00000000       0.10004749 </v>
    <i name="Tr[quadrupol]">  -7162.77000037 </i>
    <i name="Echarged">      0.00000000 </i>
    <i name="Edipol_quadrupol">      0.00000000 </i>
    <i name="Eion">      0.00000000 </i>
   </dipole>
   <energy>
    <i name="e_fr_energy">   -502.87400842 </i>
    <i name="e_wo_entrp">   -502.87400842 </i>
    <i name="e_0_energy">   -502.87400842 </i>
   </energy>
  </scstep>
  <scstep>
   <time name="dav">  292.06   41.88</time>
   <time name="total">  302.40   44.03</time>
   <dipole>
    <v name="dipole">      0.00000000       0.00000000       0.14282196 </v>
    <i name="Tr[quadrupol]">  -7162.98703628 </i>
    <i name="Echarged">      0.00000000 </i>
    <i name="Edipol_quadrupol">      0.00000000 </i>
    <i name="Eion">      0.00000000 </i>
   </dipole>
   <energy>
    <i name="e_fr_energy">   -502.76830547 </i>
    <i name="e_wo_entrp">   -502.76830547 </i>
    <i name="e_0_energy">   -502.76830547 </i>
   </energy>
  </scstep>
  <scstep>
   <time name="dav">  269.90   38.77</time>
   <time name="total">  280.55   40.96</time>
   <dipole>
    <v name="dipole">      0.00000000       0.00000000       0.14637435 </v>
    <i name="Tr[quadrupol]">  -7163.24761568 </i>
    <i name="Echarged">      0.00000000 </i>
    <i name="Edipol_quadrupol">      0.00000000 </i>
    <i name="Eion">      0.00000000 </i>
   </dipole>
   <energy>
    <i name="e_fr_energy">   -502.78903246 </i>
    <i name="e_wo_entrp">   -502.78903246 </i>
    <i name="e_0_energy">   -502.78903246 </i>
   </energy>
  </scstep>
  <scstep>
   <time name="dav">  283.85   40.74</time>
   <time name="total">  294.28   42.90</time>
   <dipole>
    <v name="dipole">      0.00000000       0.00000000       0.14508150 </v>
    <i name="Tr[quadrupol]">  -7163.44151769 </i>
    <i name="Echarged">      0.00000000 </i>
    <i name="Edipol_quadrupol">      0.00000000 </i>
    <i name="Eion">      0.00000000 </i>
   </dipole>
   <energy>
    <i name="e_fr_energy">   -502.90561525 </i>
    <i name="e_wo_entrp">   -502.90561525 </i>
    <i name="e_0_energy">   -502.90561525 </i>
   </energy>
  </scstep>
  <scstep>
   <time name="dav">  293.65   42.11</time>
   <time name="total">  304.26   44.29</time>
   <dipole>
    <v name="dipole">      0.00000000       0.00000000       0.14975218 </v>
    <i name="Tr[quadrupol]">  -7163.47803430 </i>
    <i name="Echarged">      0.00000000 </i>
    <i name="Edipol_quadrupol">      0.00000000 </i>
    <i name="Eion">      0.00000000 </i>
   </dipole>
   <energy>
    <i name="e_fr_energy">   -503.28892645 </i>
    <i name="e_wo_entrp">   -503.28892645 </i>
    <i name="e_0_energy">   -503.28892645 </i>
   </energy>
  </scstep>
  <scstep>
   <time name="dav">  291.70   41.79</time>
   <time name="total">  302.27   43.96</time>
   <dipole>
    <v name="dipole">      0.00000000       0.00000000       0.10002269 </v>
    <i name="Tr[quadrupol]">  -7163.28290883 </i>
    <i name="Echarged">      0.00000000 </i>
    <i name="Edipol_quadrupol">      0.00000000 </i>
    <i name="Eion">      0.00000000 </i>
   </dipole>
   <energy>
    <i name="e_fr_energy">   -503.62919756 </i>
    <i name="e_wo_entrp">   -503.62919756 </i>
    <i name="e_0_energy">   -503.62919756 </i>
   </energy>
  </scstep>
  <scstep>
   <time name="dav">  283.70   40.63</time>
   <time name="total">  294.30   42.81</time>
   <dipole>
    <v name="dipole">      0.00000000       0.00000000       0.10225971 </v>
    <i name="Tr[quadrupol]">  -7163.36152772 </i>
    <i name="Echarged">      0.00000000 </i>
    <i name="Edipol_quadrupol">      0.00000000 </i>
    <i name="Eion">      0.00000000 </i>
   </dipole>
   <energy>
    <i name="e_fr_energy">   -503.84477350 </i>
    <i name="e_wo_entrp">   -503.84477350 </i>
    <i name="e_0_energy">   -503.84477350 </i>
   </energy>
  </scstep>
  <scstep>
   <time name="dav">  280.76   40.24</time>
   <time name="total">  291.44   42.43</time>
   <dipole>
    <v name="dipole">      0.00000000       0.00000000       0.08883349 </v>
    <i name="Tr[quadrupol]">  -7163.66911456 </i>
    <i name="Echarged">      0.00000000 </i>
    <i name="Edipol_quadrupol">      0.00000000 </i>
    <i name="Eion">      0.00000000 </i>
   </dipole>
   <energy>
    <i name="e_fr_energy">   -503.98160771 </i>
    <i name="e_wo_entrp">   -503.98160771 </i>
    <i name="e_0_energy">   -503.98160771 </i>
   </energy>
  </scstep>
  <scstep>
   <time name="dav">  290.01   41.68</time>
   <time name="total">  300.32   43.86</time>
   <dipole>
    <v name="dipole">      0.00000000       0.00000000       0.11157323 </v>
    <i name="Tr[quadrupol]">  -7163.94052770 </i>
    <i name="Echarged">      0.00000000 </i>
    <i name="Edipol_quadrupol">      0.00000000 </i>
    <i name="Eion">      0.00000000 </i>
   </dipole>
   <energy>
    <i name="e_fr_energy">   -504.02902637 </i>
    <i name="e_wo_entrp">   -504.02902637 </i>
    <i name="e_0_energy">   -504.02902637 </i>
   </energy>
  </scstep>
  <scstep>
   <time name="dav">  269.49   38.68</time>
   <time name="total">  280.04   40.87</time>
   <dipole>
    <v name="dipole">      0.00000000       0.00000000       0.10738751 </v>
    <i name="Tr[quadrupol]">  -7163.90057579 </i>
    <i name="Echarged">      0.00000000 </i>
    <i name="Edipol_quadrupol">      0.00000000 </i>
    <i name="Eion">      0.00000000 </i>
   </dipole>
   <energy>
    <i name="e_fr_energy">   -504.03646620 </i>
    <i name="e_wo_entrp">   -504.03646620 </i>
    <i name="e_0_energy">   -504.03646620 </i>
   </energy>
  </scstep>
  <scstep>
   <time name="dav">  285.36   40.98</time>
   <time name="total">  296.11   43.19</time>
   <dipole>
    <v name="dipole">      0.00000000       0.00000000       0.11196291 </v>
    <i name="Tr[quadrupol]">  -7163.68553464 </i>
    <i name="Echarged">      0.00000000 </i>
    <i name="Edipol_quadrupol">      0.00000000 </i>
    <i name="Eion">      0.00000000 </i>
   </dipole>
   <energy>
    <i name="e_fr_energy">   -504.03412059 </i>
    <i name="e_wo_entrp">   -504.03412059 </i>
    <i name="e_0_energy">   -504.03412059 </i>
   </energy>
  </scstep>
  <scstep>
   <time name="dav">  286.54   41.16</time>
   <time name="total">  297.32   43.37</time>
   <dipole>
    <v name="dipole">      0.00000000       0.00000000       0.11378085 </v>
    <i name="Tr[quadrupol]">  -7163.55242715 </i>
    <i name="Echarged">      0.00000000 </i>
    <i name="Edipol_quadrupol">      0.00000000 </i>
    <i name="Eion">      0.00000000 </i>
   </dipole>
   <energy>
    <i name="e_fr_energy">   -504.05208061 </i>
    <i name="e_wo_entrp">   -504.05208061 </i>
    <i name="e_0_energy">   -504.05208061 </i>
   </energy>
  </scstep>
  <scstep>
   <time name="dav">  272.32   39.06</time>
   <time name="total">  282.98   41.25</time>
   <dipole>
    <v name="dipole">      0.00000000       0.00000000       0.11389323 </v>
    <i name="Tr[quadrupol]">  -7163.59315075 </i>
    <i name="Echarged">      0.00000000 </i>
    <i name="Edipol_quadrupol">      0.00000000 </i>
    <i name="Eion">      0.00000000 </i>
   </dipole>
   <energy>
    <i name="e_fr_energy">   -504.06165057 </i>
    <i name="e_wo_entrp">   -504.06165057 </i>
    <i name="e_0_energy">   -504.06165057 </i>
   </energy>
  </scstep>
  <scstep>
   <time name="dav">  292.81   42.02</time>
   <time name="total">  304.08   44.30</time>
   <dipole>
    <v name="dipole">      0.00000000       0.00000000       0.11116078 </v>
    <i name="Tr[quadrupol]">  -7163.61594668 </i>
    <i name="Echarged">      0.00000000 </i>
    <i name="Edipol_quadrupol">      0.00000000 </i>
    <i name="Eion">      0.00000000 </i>
   </dipole>
   <energy>
    <i name="e_fr_energy">   -504.07177893 </i>
    <i name="e_wo_entrp">   -504.07177893 </i>
    <i name="e_0_energy">   -504.07177893 </i>
   </energy>
  </scstep>
  <scstep>
   <time name="dav">  287.57   41.29</time>
   <time name="total">  298.46   43.52</time>
   <dipole>
    <v name="dipole">      0.00000000       0.00000000       0.11379911 </v>
    <i name="Tr[quadrupol]">  -7163.62976271 </i>
    <i name="Echarged">      0.00000000 </i>
    <i name="Edipol_quadrupol">      0.00000000 </i>
    <i name="Eion">      0.00000000 </i>
   </dipole>
   <energy>
    <i name="e_fr_energy">   -504.08001352 </i>
    <i name="e_wo_entrp">   -504.08001352 </i>
    <i name="e_0_energy">   -504.08001352 </i>
   </energy>
  </scstep>
  <scstep>
   <time name="dav">  283.96   40.77</time>
   <time name="total">  294.83   43.00</time>
   <dipole>
    <v name="dipole">      0.00000000       0.00000000       0.11660572 </v>
    <i name="Tr[quadrupol]">  -7163.64554270 </i>
    <i name="Echarged">      0.00000000 </i>
    <i name="Edipol_quadrupol">      0.00000000 </i>
    <i name="Eion">      0.00000000 </i>
   </dipole>
   <energy>
    <i name="e_fr_energy">   -504.08927792 </i>
    <i name="e_wo_entrp">   -504.08927792 </i>
    <i name="e_0_energy">   -504.08927792 </i>
   </energy>
  </scstep>
  <scstep>
   <time name="dav">  219.57   31.52</time>
   <time name="total">  230.46   33.74</time>
   <dipole>
    <v name="dipole">      0.00000000       0.00000000       0.11661134 </v>
    <i name="Tr[quadrupol]">  -7163.64614269 </i>
    <i name="Echarged">      0.00000000 </i>
    <i name="Edipol_quadrupol">      0.00000000 </i>
    <i name="Eion">      0.00000000 </i>
   </dipole>
   <energy>
    <i name="e_fr_energy">   -504.09074426 </i>
    <i name="e_wo_entrp">   -504.09074426 </i>
    <i name="e_0_energy">   -504.09074426 </i>
   </energy>
  </scstep>
  <scstep>
   <time name="dav">  294.62   42.32</time>
   <time name="total">  305.61   44.56</time>
   <dipole>
    <v name="dipole">      0.00000000       0.00000000       0.11460454 </v>
    <i name="Tr[quadrupol]">  -7163.65404239 </i>
    <i name="Echarged">      0.00000000 </i>
    <i name="Edipol_quadrupol">      0.00000000 </i>
    <i name="Eion">      0.00000000 </i>
   </dipole>
   <energy>
    <i name="e_fr_energy">   -504.09572267 </i>
    <i name="e_wo_entrp">   -504.09572267 </i>
    <i name="e_0_energy">   -504.09572267 </i>
   </energy>
  </scstep>
  <scstep>
   <time name="dav">  294.13   42.23</time>
   <time name="total">  305.09   44.49</time>
   <dipole>
    <v name="dipole">      0.00000000       0.00000000       0.11608390 </v>
    <i name="Tr[quadrupol]">  -7163.63970979 </i>
    <i name="Echarged">      0.00000000 </i>
    <i name="Edipol_quadrupol">      0.00000000 </i>
    <i name="Eion">      0.00000000 </i>
   </dipole>
   <energy>
    <i name="e_fr_energy">   -504.08255371 </i>
    <i name="e_wo_entrp">   -504.08255371 </i>
    <i name="e_0_energy">   -504.08255371 </i>
   </energy>
  </scstep>
  <scstep>
   <time name="dav">  289.59   41.58</time>
   <time name="total">  300.35   43.81</time>
   <dipole>
    <v name="dipole">      0.00000000       0.00000000       0.11834308 </v>
    <i name="Tr[quadrupol]">  -7163.63405393 </i>
    <i name="Echarged">      0.00000000 </i>
    <i name="Edipol_quadrupol">      0.00000000 </i>
    <i name="Eion">      0.00000000 </i>
   </dipole>
   <energy>
    <i name="e_fr_energy">   -504.06970646 </i>
    <i name="e_wo_entrp">   -504.06970646 </i>
    <i name="e_0_energy">   -504.06970646 </i>
   </energy>
  </scstep>
  <scstep>
   <time name="dav">  293.62   42.17</time>
   <time name="total">  304.42   44.39</time>
   <dipole>
    <v name="dipole">      0.00000000       0.00000000       0.12194401 </v>
    <i name="Tr[quadrupol]">  -7163.69914606 </i>
    <i name="Echarged">      0.00000000 </i>
    <i name="Edipol_quadrupol">      0.00000000 </i>
    <i name="Eion">      0.00000000 </i>
   </dipole>
   <energy>
    <i name="e_fr_energy">   -504.05734290 </i>
    <i name="e_wo_entrp">   -504.05734290 </i>
    <i name="e_0_energy">   -504.05734290 </i>
   </energy>
  </scstep>
  <scstep>
   <time name="dav">  280.93   40.34</time>
   <time name="total">  291.93   42.60</time>
   <dipole>
    <v name="dipole">      0.00000000       0.00000000       0.12013613 </v>
    <i name="Tr[quadrupol]">  -7163.70099513 </i>
    <i name="Echarged">      0.00000000 </i>
    <i name="Edipol_quadrupol">      0.00000000 </i>
    <i name="Eion">      0.00000000 </i>
   </dipole>
   <energy>
    <i name="e_fr_energy">   -504.05211248 </i>
    <i name="e_wo_entrp">   -504.05211248 </i>
    <i name="e_0_energy">   -504.05211248 </i>
   </energy>
  </scstep>
  <scstep>
   <time name="dav">  293.13   42.07</time>
   <time name="total">  304.17   44.31</time>
   <dipole>
    <v name="dipole">      0.00000000       0.00000000       0.12010073 </v>
    <i name="Tr[quadrupol]">  -7163.65154955 </i>
    <i name="Echarged">      0.00000000 </i>
    <i name="Edipol_quadrupol">      0.00000000 </i>
    <i name="Eion">      0.00000000 </i>
   </dipole>
   <energy>
    <i name="e_fr_energy">   -504.04453091 </i>
    <i name="e_wo_entrp">   -504.04453091 </i>
    <i name="e_0_energy">   -504.04453091 </i>
   </energy>
  </scstep>
  <scstep>
   <time name="dav">  285.61   40.98</time>
   <time name="total">  296.73   43.23</time>
   <dipole>
    <v name="dipole">      0.00000000       0.00000000       0.11659764 </v>
    <i name="Tr[quadrupol]">  -7163.63903079 </i>
    <i name="Echarged">      0.00000000 </i>
    <i name="Edipol_quadrupol">      0.00000000 </i>
    <i name="Eion">      0.00000000 </i>
   </dipole>
   <energy>
    <i name="e_fr_energy">   -504.04863822 </i>
    <i name="e_wo_entrp">   -504.04863822 </i>
    <i name="e_0_energy">   -504.04863822 </i>
   </energy>
  </scstep>
  <scstep>
   <time name="dav">  279.26   40.04</time>
   <time name="total">  290.30   42.28</time>
   <dipole>
    <v name="dipole">      0.00000000       0.00000000       0.11990214 </v>
    <i name="Tr[quadrupol]">  -7163.63818833 </i>
    <i name="Echarged">      0.00000000 </i>
    <i name="Edipol_quadrupol">      0.00000000 </i>
    <i name="Eion">      0.00000000 </i>
   </dipole>
   <energy>
    <i name="e_fr_energy">   -504.04668147 </i>
    <i name="e_wo_entrp">   -504.04668147 </i>
    <i name="e_0_energy">   -504.04668147 </i>
   </energy>
  </scstep>
  <scstep>
   <time name="dav">  286.76   41.11</time>
   <time name="total">  298.08   43.41</time>
   <dipole>
    <v name="dipole">      0.00000000       0.00000000       0.12188158 </v>
    <i name="Tr[quadrupol]">  -7163.65669613 </i>
    <i name="Echarged">      0.00000000 </i>
    <i name="Edipol_quadrupol">      0.00000000 </i>
    <i name="Eion">      0.00000000 </i>
   </dipole>
   <energy>
    <i name="e_fr_energy">   -504.04656936 </i>
    <i name="e_wo_entrp">   -504.04656936 </i>
    <i name="e_0_energy">   -504.04656936 </i>
   </energy>
  </scstep>
  <scstep>
   <time name="dav">  279.71   40.26</time>
   <time name="total">  290.86   42.52</time>
   <dipole>
    <v name="dipole">      0.00000000       0.00000000       0.12147033 </v>
    <i name="Tr[quadrupol]">  -7163.66746880 </i>
    <i name="Echarged">      0.00000000 </i>
    <i name="Edipol_quadrupol">      0.00000000 </i>
    <i name="Eion">      0.00000000 </i>
   </dipole>
   <energy>
    <i name="e_fr_energy">   -504.04740146 </i>
    <i name="e_wo_entrp">   -504.04740146 </i>
    <i name="e_0_energy">   -504.04740146 </i>
   </energy>
  </scstep>
  <scstep>
   <time name="dav">  291.26   41.85</time>
   <time name="total">  302.38   44.11</time>
   <dipole>
    <v name="dipole">      0.00000000       0.00000000       0.12200219 </v>
    <i name="Tr[quadrupol]">  -7163.66889037 </i>
    <i name="Echarged">      0.00000000 </i>
    <i name="Edipol_quadrupol">      0.00000000 </i>
    <i name="Eion">      0.00000000 </i>
   </dipole>
   <energy>
    <i name="e_fr_energy">   -504.04790942 </i>
    <i name="e_wo_entrp">   -504.04790942 </i>
    <i name="e_0_energy">   -504.04790942 </i>
   </energy>
  </scstep>
  <scstep>
   <time name="dav">  283.53   40.74</time>
   <time name="total">  294.75   43.01</time>
   <dipole>
    <v name="dipole">      0.00000000       0.00000000       0.12170606 </v>
    <i name="Tr[quadrupol]">  -7163.66220560 </i>
    <i name="Echarged">      0.00000000 </i>
    <i name="Edipol_quadrupol">      0.00000000 </i>
    <i name="Eion">      0.00000000 </i>
   </dipole>
   <energy>
    <i name="e_fr_energy">   -504.04820109 </i>
    <i name="e_wo_entrp">   -504.04820109 </i>
    <i name="e_0_energy">   -504.04820109 </i>
   </energy>
  </scstep>
  <scstep>
   <time name="dav">  291.10   42.06</time>
   <time name="total">  302.19   44.31</time>
   <dipole>
    <v name="dipole">      0.00000000       0.00000000       0.12275464 </v>
    <i name="Tr[quadrupol]">  -7163.66108634 </i>
    <i name="Echarged">      0.00000000 </i>
    <i name="Edipol_quadrupol">      0.00000000 </i>
    <i name="Eion">      0.00000000 </i>
   </dipole>
   <energy>
    <i name="e_fr_energy">   -504.04855302 </i>
    <i name="e_wo_entrp">   -504.04855302 </i>
    <i name="e_0_energy">   -504.04855302 </i>
   </energy>
  </scstep>
  <scstep>
   <time name="dav">  270.99   38.90</time>
   <time name="total">  282.11   41.15</time>
   <dipole>
    <v name="dipole">      0.00000000       0.00000000       0.12221141 </v>
    <i name="Tr[quadrupol]">  -7163.66357050 </i>
    <i name="Echarged">      0.00000000 </i>
    <i name="Edipol_quadrupol">      0.00000000 </i>
    <i name="Eion">      0.00000000 </i>
   </dipole>
   <energy>
    <i name="e_fr_energy">   -504.04858889 </i>
    <i name="e_wo_entrp">   -504.04858889 </i>
    <i name="e_0_energy">   -504.04858889 </i>
   </energy>
  </scstep>
  <scstep>
   <time name="dav">  277.21   39.80</time>
   <time name="total">  288.33   42.07</time>
   <dipole>
    <v name="dipole">      0.00000000       0.00000000       0.12247807 </v>
    <i name="Tr[quadrupol]">  -7163.68482382 </i>
    <i name="Echarged">      0.00000000 </i>
    <i name="Edipol_quadrupol">      0.00000000 </i>
    <i name="Eion">      0.00000000 </i>
   </dipole>
   <energy>
    <i name="e_fr_energy">   -504.04868509 </i>
    <i name="e_wo_entrp">   -504.04868509 </i>
    <i name="e_0_energy">   -504.04868509 </i>
   </energy>
  </scstep>
  <scstep>
   <time name="dav">  285.62   41.02</time>
   <time name="total">  297.35   43.37</time>
   <dipole>
    <v name="dipole">      0.00000000       0.00000000       0.12269350 </v>
    <i name="Tr[quadrupol]">  -7163.69302170 </i>
    <i name="Echarged">      0.00000000 </i>
    <i name="Edipol_quadrupol">      0.00000000 </i>
    <i name="Eion">      0.00000000 </i>
   </dipole>
   <energy>
    <i name="e_fr_energy">   -504.04877035 </i>
    <i name="e_wo_entrp">   -504.04877035 </i>
    <i name="e_0_energy">   -504.04877035 </i>
   </energy>
  </scstep>
  <scstep>
   <time name="dav">  267.89   38.47</time>
   <time name="total">  278.97   40.72</time>
   <dipole>
    <v name="dipole">      0.00000000       0.00000000       0.12296499 </v>
    <i name="Tr[quadrupol]">  -7163.69699240 </i>
    <i name="Echarged">      0.00000000 </i>
    <i name="Edipol_quadrupol">      0.00000000 </i>
    <i name="Eion">      0.00000000 </i>
   </dipole>
   <energy>
    <i name="e_fr_energy">   -504.04882343 </i>
    <i name="e_wo_entrp">   -504.04882343 </i>
    <i name="e_0_energy">   -504.04882343 </i>
   </energy>
  </scstep>
  <scstep>
   <time name="dav">  212.87   30.67</time>
   <time name="total">  223.93   32.91</time>
   <dipole>
    <v name="dipole">      0.00000000       0.00000000       0.12290444 </v>
    <i name="Tr[quadrupol]">  -7163.69174528 </i>
    <i name="Echarged">      0.00000000 </i>
    <i name="Edipol_quadrupol">      0.00000000 </i>
    <i name="Eion">      0.00000000 </i>
   </dipole>
   <energy>
    <i name="e_fr_energy">   -504.04885435 </i>
    <i name="e_wo_entrp">   -504.04885435 </i>
    <i name="e_0_energy">   -504.04885435 </i>
   </energy>
  </scstep>
  <scstep>
   <time name="dav">  190.64   29.38</time>
   <time name="total">  201.61   31.62</time>
   <dipole>
    <v name="dipole">      0.00000000       0.00000000       0.12285302 </v>
    <i name="Tr[quadrupol]">  -7163.68642915 </i>
    <i name="Echarged">      0.00000000 </i>
    <i name="Edipol_quadrupol">      0.00000000 </i>
    <i name="Eion">      0.00000000 </i>
   </dipole>
   <energy>
    <i name="e_fr_energy">   -504.04886753 </i>
    <i name="e_wo_entrp">   -504.04886753 </i>
    <i name="e_0_energy">   -504.04886753 </i>
   </energy>
  </scstep>
  <scstep>
   <time name="dav">  212.67   31.02</time>
   <time name="total">  223.81   33.28</time>
   <dipole>
    <v name="dipole">      0.00000000       0.00000000       0.12258418 </v>
    <i name="Tr[quadrupol]">  -7163.68708257 </i>
    <i name="Echarged">      0.00000000 </i>
    <i name="Edipol_quadrupol">      0.00000000 </i>
    <i name="Eion">      0.00000000 </i>
   </dipole>
   <energy>
    <i name="e_fr_energy">   -504.04888745 </i>
    <i name="e_wo_entrp">   -504.04888745 </i>
    <i name="e_0_energy">   -504.04888745 </i>
   </energy>
  </scstep>
  <scstep>
   <time name="dav">  100.60   20.19</time>
   <time name="total">  109.12   21.87</time>
   <dipole>
    <v name="dipole">      0.00000000       0.00000000       0.12242572 </v>
    <i name="Tr[quadrupol]">  -7163.68720860 </i>
    <i name="Echarged">      0.00000000 </i>
    <i name="Edipol_quadrupol">      0.00000000 </i>
    <i name="Eion">      0.00000000 </i>
   </dipole>
   <energy>
    <i name="alphaZ">   1815.82153834 </i>
    <i name="ewald"> 207083.85421532 </i>
    <i name="hartreedc">-258148.83417363 </i>
    <i name="XCdc">    997.65482931 </i>
    <i name="pawpsdc">  55327.62901308 </i>
    <i name="pawaedc"> -56448.95208109 </i>
    <i name="eentropy">      0.00000000 </i>
    <i name="bandstr">  -4390.49417401 </i>
    <i name="atom">  53259.27193834 </i>
    <i name="e_fr_energy">   -504.04889434 </i>
    <i name="e_wo_entrp">   -504.04889434 </i>
    <i name="e_0_energy">   -504.04889434 </i>
   </energy>
  </scstep>
  <structure>
   <crystal>
    <varray name="basis" >
     <v>       8.53269958       0.00000000       0.00000000 </v>
     <v>      -0.00051933       8.49699972       0.00000000 </v>
     <v>       0.00000000       0.00000000      23.59499931 </v>
    </varray>
    <i name="volume">   1710.69280467 </i>
    <varray name="rec_basis" >
     <v>       0.11719620       0.00000716       0.00000000 </v>
     <v>       0.00000000       0.11768860       0.00000000 </v>
     <v>       0.00000000       0.00000000       0.04238186 </v>
    </varray>
   </crystal>
   <varray name="positions" >
    <v>       0.00086000       0.99993000       0.24271000 </v>
    <v>       0.16563197       0.16689272       0.30267213 </v>
    <v>       0.49945875       0.16083156       0.30209605 </v>
    <v>       0.66822000       0.00107000       0.24272000 </v>
    <v>       0.83567803       0.16761142       0.30158044 </v>
    <v>       0.00044000       0.33497000       0.24240000 </v>
    <v>       0.16908596       0.50432933       0.30359207 </v>
    <v>       0.33469000       0.33305000       0.24267000 </v>
    <v>       0.49805898       0.50477233       0.30286473 </v>
    <v>       0.83356719       0.50066360       0.30142484 </v>
    <v>       0.16842387       0.83125233       0.30398063 </v>
    <v>       0.33342000       0.66555000       0.24261000 </v>
    <v>       0.83608298       0.83258393       0.30181335 </v>
    <v>       0.00064000       0.00119000       0.00199000 </v>
    <v>       0.00160129       0.00355220       0.36072032 </v>
    <v>       0.16843000       0.16962000       0.06269000 </v>
    <v>       0.33460000       0.00297000       0.00254000 </v>
    <v>       0.32931288       0.00423711       0.36192236 </v>
    <v>       0.50463000       0.16850000       0.06120000 </v>
    <v>       0.83272000       0.16670000       0.06193000 </v>
    <v>       0.00004000       0.33467000       0.00213000 </v>
    <v>       0.00341893       0.33559974       0.35955122 </v>
    <v>       0.16757000       0.49895000       0.06268000 </v>
    <v>       0.50099000       0.49896000       0.06206000 </v>
    <v>       0.83393000       0.50234000       0.06235000 </v>
    <v>       0.00121000       0.66785000       0.00188000 </v>
    <v>       0.99436039       0.66453337       0.36064469 </v>
    <v>       0.16792000       0.83462000       0.06228000 </v>
    <v>       0.33437000       0.66664000       0.00225000 </v>
    <v>       0.50152000       0.83563000       0.06217000 </v>
    <v>       0.66753000       0.66705000       0.00175000 </v>
    <v>       0.66820935       0.66599714       0.35878875 </v>
    <v>       0.83293000       0.83584000       0.06235000 </v>
    <v>       0.00121000       0.00098000       0.12225000 </v>
    <v>       0.16700000       0.16811000       0.18239000 </v>
    <v>       0.33470000       0.00227000       0.12192000 </v>
    <v>       0.50174000       0.16716000       0.18263000 </v>
    <v>       0.83421000       0.16639000       0.18283000 </v>
    <v>       0.16964000       0.49868000       0.18209000 </v>
    <v>       0.50219000       0.50081000       0.18317000 </v>
    <v>       0.66741000       0.33395000       0.12233000 </v>
    <v>       0.83134000       0.50253000       0.18283000 </v>
    <v>       0.00132000       0.66795000       0.12253000 </v>
    <v>       0.16898000       0.83509000       0.18243000 </v>
    <v>       0.33446000       0.66703000       0.12223000 </v>
    <v>       0.49971000       0.83538000       0.18278000 </v>
    <v>       0.66698000       0.66840000       0.12259000 </v>
    <v>       0.83488000       0.83403000       0.18294000 </v>
    <v>       0.33558000       0.99863000       0.24353000 </v>
    <v>       0.66801000       0.33262000       0.24229000 </v>
    <v>       0.00448000       0.66739000       0.24217000 </v>
    <v>       0.49537595       0.83504644       0.30398347 </v>
    <v>       0.66521000       0.67351000       0.24327000 </v>
    <v>       0.66620000       0.99680000       0.00000000 </v>
    <v>       0.66424298       0.99383088       0.36161919 </v>
    <v>       0.33213000       0.33386000       0.00135000 </v>
    <v>       0.33640112       0.33513058       0.36264845 </v>
    <v>       0.67040000       0.33673000       0.00321000 </v>
    <v>       0.66494304       0.33085229       0.36644380 </v>
    <v>       0.66728000       0.99998000       0.12246000 </v>
    <v>       0.99806000       0.33495000       0.12235000 </v>
    <v>       0.33675000       0.33238000       0.12261000 </v>
    <v>       0.49936276       0.14652796       0.44691521 </v>
   </varray>
  </structure>
  <varray name="forces" >
   <v>       0.00764038       0.00417843      -0.21176930 </v>
   <v>       0.00525087      -0.04434739       0.02020133 </v>
   <v>       0.16623059      -0.30947561       0.28277837 </v>
   <v>      -0.07448798      -0.30799692      -0.08886101 </v>
   <v>      -0.05216127      -0.20293335       0.21037136 </v>
   <v>       0.13156547       0.09654941      -0.21635470 </v>
   <v>      -0.00640576      -0.02385003       0.00772109 </v>
   <v>      -0.04436762       0.13462460      -0.09673398 </v>
   <v>      -0.00760860       0.04452835      -0.01832809 </v>
   <v>      -0.01675045       0.06837814      -0.02094718 </v>
   <v>       0.06265012       0.04107541       0.00528655 </v>
   <v>       0.13074758       0.10948023      -0.00210645 </v>
   <v>      -0.25173126       0.24842835       0.37651215 </v>
   <v>       0.01164830      -0.04913575       0.32441985 </v>
   <v>      -0.12359799       0.03026938       0.02287021 </v>
   <v>      -0.32058385      -0.29977785      -0.02158223 </v>
   <v>      -0.01396094      -0.00970302       0.40002755 </v>
   <v>      -0.01874293       0.02204001      -0.07684087 </v>
   <v>      -0.20184031      -0.16915233       0.53612483 </v>
   <v>       0.47218495       0.15275281       0.11512237 </v>
   <v>      -0.06777567       0.01581976       0.43288773 </v>
   <v>       0.02555240      -0.01684867       0.01405151 </v>
   <v>      -0.25718436       0.28772206       0.00081555 </v>
   <v>       0.11800791       0.45580975       0.15816610 </v>
   <v>       0.15642337       0.10013495      -0.07104845 </v>
   <v>       0.08174785       0.04295078       0.13318301 </v>
   <v>      -0.03060422      -0.00235991      -0.01527025 </v>
   <v>      -0.06339719      -0.02138863      -0.45835178 </v>
   <v>      -0.10391891       0.05852213       0.29678415 </v>
   <v>      -0.28577647      -0.38079526      -0.02025174 </v>
   <v>      -0.01020904      -0.06743475       0.45216048 </v>
   <v>       0.08705006       0.11621273      -0.01159263 </v>
   <v>       0.35892537      -0.35765876      -0.04185867 </v>
   <v>       0.00696347       0.14884601       0.02760685 </v>
   <v>       0.04267285      -0.03371640       0.04164357 </v>
   <v>       0.08825152       0.08119546       0.05165333 </v>
   <v>      -0.14181755      -0.04820426       0.09846763 </v>
   <v>       0.08055204       0.04840079      -0.04944096 </v>
   <v>      -0.03329755       0.00585990       0.12842985 </v>
   <v>       0.00450878       0.07252812       0.03584447 </v>
   <v>       0.06543726      -0.01146457       0.01303169 </v>
   <v>       0.04822736       0.05396317       0.10095468 </v>
   <v>      -0.08488184      -0.05588234      -0.09118403 </v>
   <v>       0.01380133      -0.05980700       0.04453356 </v>
   <v>       0.15245076       0.01456522       0.01410793 </v>
   <v>      -0.04600126      -0.04568199       0.09230857 </v>
   <v>      -0.05997623      -0.06879657       0.07144572 </v>
[...]
       <r>   -39.0391     0.0000    42.0000 </r>
       <r>   -38.8685     0.0000    42.0000 </r>
       <r>   -38.6978     0.0000    42.0000 </r>
       <r>   -38.5271     0.0000    42.0000 </r>
       <r>   -38.3565     0.0000    42.0000 </r>
       <r>   -38.1858     0.0000    42.0000 </r>
       <r>   -38.0152     0.0000    42.0000 </r>
       <r>   -37.8445     0.0000    42.0000 </r>
       <r>   -37.6739     0.0000    42.0000 </r>
       <r>   -37.5032     0.0000    42.0000 </r>
       <r>   -37.3325     0.0000    42.0000 </r>
       <r>   -37.1619     0.0000    42.0000 </r>
       <r>   -36.9912     0.0000    42.0000 </r>
       <r>   -36.8206     0.0000    42.0000 </r>
       <r>   -36.6499     0.0000    42.0000 </r>
       <r>   -36.4793     0.0000    42.0000 </r>
       <r>   -36.3086     0.0000    42.0000 </r>
       <r>   -36.1379     0.0000    42.0000 </r>
       <r>   -35.9673     0.0000    42.0000 </r>
       <r>   -35.7966     0.0000    42.0000 </r>
       <r>   -35.6260     0.0000    42.0000 </r>
       <r>   -35.4553     0.0000    42.0000 </r>
       <r>   -35.2846     0.0000    42.0000 </r>
       <r>   -35.1140     0.0000    42.0000 </r>
       <r>   -34.9433     0.0000    42.0000 </r>
       <r>   -34.7727     0.0000    42.0000 </r>
       <r>   -34.6020     0.0000    42.0000 </r>
       <r>   -34.4314     0.0000    42.0000 </r>
       <r>   -34.2607     0.0000    42.0000 </r>
       <r>   -34.0900     0.0000    42.0000 </r>
       <r>   -33.9194     0.0000    42.0000 </r>
       <r>   -33.7487     0.0000    42.0000 </r>
       <r>   -33.5781     0.0000    42.0000 </r>
       <r>   -33.4074     0.0000    42.0000 </r>
       <r>   -33.2368     0.0000    42.0000 </r>
       <r>   -33.0661     0.0000    42.0000 </r>
       <r>   -32.8954     0.0000    42.0000 </r>
       <r>   -32.7248     0.0000    42.0000 </r>
       <r>   -32.5541     0.0000    42.0000 </r>
       <r>   -32.3835     0.0000    42.0000 </r>
       <r>   -32.2128     0.0000    42.0000 </r>
       <r>   -32.0421     0.0000    42.0000 </r>
       <r>   -31.8715     0.0000    42.0000 </r>
       <r>   -31.7008     0.0000    42.0000 </r>
       <r>   -31.5302     0.0000    42.0000 </r>
       <r>   -31.3595     0.0000    42.0000 </r>
       <r>   -31.1889     0.0000    42.0000 </r>
       <r>   -31.0182     0.0000    42.0000 </r>
       <r>   -30.8475     0.0000    42.0000 </r>
       <r>   -30.6769     0.0000    42.0000 </r>
       <r>   -30.5062     0.0000    42.0000 </r>
       <r>   -30.3356     0.0000    42.0000 </r>
       <r>   -30.1649     0.0000    42.0000 </r>
       <r>   -29.9942     0.0000    42.0000 </r>
       <r>   -29.8236     0.0000    42.0000 </r>
       <r>   -29.6529     0.0000    42.0000 </r>
       <r>   -29.4823     0.0000    42.0000 </r>
       <r>   -29.3116     0.0000    42.0000 </r>
       <r>   -29.1410     0.0000    42.0000 </r>
       <r>   -28.9703     0.0000    42.0000 </r>
       <r>   -28.7996     0.0000    42.0000 </r>
       <r>   -28.6290     0.0000    42.0000 </r>
       <r>   -28.4583     0.0000    42.0000 </r>
       <r>   -28.2877     0.0000    42.0000 </r>
       <r>   -28.1170     0.0000    42.0000 </r>
       <r>   -27.9464     0.0000    42.0000 </r>
       <r>   -27.7757     0.0000    42.0000 </r>
       <r>   -27.6050     0.0000    42.0000 </r>
       <r>   -27.4344     0.0000    42.0000 </r>
       <r>   -27.2637     0.0000    42.0000 </r>
       <r>   -27.0931     0.0000    42.0000 </r>
       <r>   -26.9224     0.0000    42.0000 </r>
       <r>   -26.7517     0.0000    42.0000 </r>
       <r>   -26.5811     0.0000    42.0000 </r>
       <r>   -26.4104     0.0000    42.0000 </r>
       <r>   -26.2398     0.0000    42.0000 </r>
       <r>   -26.0691     0.0000    42.0000 </r>
       <r>   -25.8985     0.0000    42.0000 </r>
       <r>   -25.7278     0.0000    42.0000 </r>
       <r>   -25.5571     0.0000    42.0000 </r>
       <r>   -25.3865     0.0000    42.0000 </r>
       <r>   -25.2158     0.0000    42.0000 </r>
       <r>   -25.0452     0.0000    42.0000 </r>
       <r>   -24.8745     0.0000    42.0000 </r>
       <r>   -24.7039     0.0000    42.0000 </r>
       <r>   -24.5332     0.0000    42.0000 </r>
       <r>   -24.3625     0.0000    42.0000 </r>
       <r>   -24.1919     0.0000    42.0000 </r>
       <r>   -24.0212     0.0000    42.0000 </r>
       <r>   -23.8506     0.0000    42.0000 </r>
       <r>   -23.6799     0.0000    42.0000 </r>
       <r>   -23.5092     0.0000    42.0000 </r>
       <r>   -23.3386     0.0000    42.0000 </r>
       <r>   -23.1679     0.0000    42.0000 </r>
       <r>   -22.9973     0.0000    42.0000 </r>
       <r>   -22.8266     0.0000    42.0000 </r>
       <r>   -22.6560     0.0000    42.0000 </r>
       <r>   -22.4853     0.0000    42.0000 </r>
       <r>   -22.3146     0.0000    42.0000 </r>
       <r>   -22.1440     0.0000    42.0000 </r>
       <r>   -21.9733     0.0000    42.0000 </r>
       <r>   -21.8027     0.0000    42.0000 </r>
       <r>   -21.6320     0.0000    42.0000 </r>
       <r>   -21.4614     0.0000    42.0000 </r>
       <r>   -21.2907     0.0000    42.0000 </r>
       <r>   -21.1200     0.0000    42.0000 </r>
       <r>   -20.9494     0.0000    42.0000 </r>
       <r>   -20.7787     0.0000    42.0000 </r>
       <r>   -20.6081     0.0000    42.0000 </r>
       <r>   -20.4374     0.0000    42.0000 </r>
       <r>   -20.2667     0.0000    42.0000 </r>
       <r>   -20.0961     0.0000    42.0000 </r>
       <r>   -19.9254     0.0000    42.0000 </r>
       <r>   -19.7548     0.0000    42.0000 </r>
       <r>   -19.5841     0.0000    42.0000 </r>
       <r>   -19.4135     0.0000    42.0000 </r>
       <r>   -19.2428     0.0000    42.0000 </r>
       <r>   -19.0721     0.0000    42.0000 </r>
       <r>   -18.9015     0.0000    42.0000 </r>
       <r>   -18.7308     0.0000    42.0000 </r>
       <r>   -18.5602     0.0000    42.0000 </r>
       <r>   -18.3895     0.0000    42.0000 </r>
       <r>   -18.2188     0.0000    42.0000 </r>
       <r>   -18.0482     0.0000    42.0000 </r>
       <r>   -17.8775     0.0000    42.0000 </r>
       <r>   -17.7069     0.0000    42.0000 </r>
       <r>   -17.5362     0.0000    42.0000 </r>
       <r>   -17.3656     0.0000    42.0000 </r>
       <r>   -17.1949     0.0000    42.0000 </r>
       <r>   -17.0242     0.0000    42.0000 </r>
       <r>   -16.8536     0.0000    42.0000 </r>
       <r>   -16.6829     0.0000    42.0000 </r>
       <r>   -16.5123     0.0000    42.0000 </r>
       <r>   -16.3416     0.0000    42.0000 </r>
       <r>   -16.1710     0.0000    42.0000 </r>
       <r>   -16.0003     0.0000    42.0000 </r>
       <r>   -15.8296     0.0000    42.0000 </r>
       <r>   -15.6590     0.0000    42.0000 </r>
       <r>   -15.4883     0.0000    42.0000 </r>
       <r>   -15.3177    29.2984    47.0000 </r>
       <r>   -15.1470     0.0000    47.0000 </r>
       <r>   -14.9763     0.0000    47.0000 </r>
       <r>   -14.8057     0.0000    47.0000 </r>
       <r>   -14.6350     0.0000    47.0000 </r>
       <r>   -14.4644     0.0000    47.0000 </r>
       <r>   -14.2937     0.0000    47.0000 </r>
       <r>   -14.1231     0.0000    47.0000 </r>
       <r>   -13.9524     0.0000    47.0000 </r>
       <r>   -13.7817     0.0000    47.0000 </r>
       <r>   -13.6111     0.0000    47.0000 </r>
       <r>   -13.4404     0.0000    47.0000 </r>
       <r>   -13.2698     0.0000    47.0000 </r>
       <r>   -13.0991     0.0000    47.0000 </r>
       <r>   -12.9285     0.0000    47.0000 </r>
       <r>   -12.7578     0.0000    47.0000 </r>
       <r>   -12.5871     0.0000    47.0000 </r>
       <r>   -12.4165     0.0000    47.0000 </r>
       <r>   -12.2458     0.0000    47.0000 </r>
       <r>   -12.0752     0.0000    47.0000 </r>
       <r>   -11.9045     0.0000    47.0000 </r>
       <r>   -11.7338     0.0000    47.0000 </r>
       <r>   -11.5632     0.0000    47.0000 </r>
       <r>   -11.3925     0.0000    47.0000 </r>
       <r>   -11.2219     0.0000    47.0000 </r>
       <r>   -11.0512     0.0000    47.0000 </r>
       <r>   -10.8806     0.0000    47.0000 </r>
       <r>   -10.7099     0.0000    47.0000 </r>
       <r>   -10.5392     0.0000    47.0000 </r>
       <r>   -10.3686     0.0000    47.0000 </r>
       <r>   -10.1979     0.0000    47.0000 </r>
       <r>   -10.0273     0.0000    47.0000 </r>
       <r>    -9.8566     0.0000    47.0000 </r>
       <r>    -9.6860     0.0000    47.0000 </r>
       <r>    -9.5153     0.0000    47.0000 </r>
       <r>    -9.3446     0.0000    47.0000 </r>
       <r>    -9.1740     0.0000    47.0000 </r>
       <r>    -9.0033     0.0000    47.0000 </r>
       <r>    -8.8327     0.0000    47.0000 </r>
       <r>    -8.6620     0.0000    47.0000 </r>
       <r>    -8.4913     0.0000    47.0000 </r>
       <r>    -8.3207     0.0000    47.0000 </r>
       <r>    -8.1500     0.0000    47.0000 </r>
       <r>    -7.9794     0.0000    47.0000 </r>
       <r>    -7.8087     0.0000    47.0000 </r>
       <r>    -7.6381     0.0000    47.0000 </r>
       <r>    -7.4674     0.0000    47.0000 </r>
       <r>    -7.2967     5.8597    48.0000 </r>
       <r>    -7.1261     0.0000    48.0000 </r>
       <r>    -6.9554     2.2281    48.1600 </r>
       <r>    -6.7848     1.4577    48.4221 </r>
       <r>    -6.6141     1.6841    48.6961 </r>
       <r>    -6.4435     1.2992    48.9285 </r>
       <r>    -6.2728     1.7305    49.2343 </r>
       <r>    -6.1021     1.3956    49.5010 </r>
       <r>    -5.9315     3.7047    49.8784 </r>
       <r>    -5.7608     3.7202    50.4029 </r>
       <r>    -5.5902     3.8818    51.0386 </r>
       <r>    -5.4195     1.5243    51.5295 </r>
       <r>    -5.2488     3.2418    51.9725 </r>
       <r>    -5.0782     3.2330    52.5335 </r>
       <r>    -4.9075     7.1533    53.5118 </r>
       <r>    -4.7369     3.0051    54.1000 </r>
       <r>    -4.5662     5.9607    54.8175 </r>
       <r>    -4.3956     3.2456    55.5186 </r>
       <r>    -4.2249     5.5842    56.0706 </r>
       <r>    -4.0542     9.8487    57.7564 </r>
       <r>    -3.8836     6.2874    58.9099 </r>
       <r>    -3.7129     8.2978    60.2363 </r>
       <r>    -3.5423     6.7410    61.2286 </r>
       <r>    -3.3716    15.2475    62.7034 </r>
       <r>    -3.2009    17.6313    65.4123 </r>
       <r>    -3.0303    24.9609    68.6840 </r>
       <r>    -2.8596    32.2072    71.6846 </r>
       <r>    -2.6890    31.9353    75.7211 </r>
       <r>    -2.5183    28.8164    78.9616 </r>
       <r>    -2.3477    42.7395    83.4687 </r>
       <r>    -2.1770    44.5533    88.3621 </r>
       <r>    -2.0063    40.4842    93.7331 </r>
       <r>    -1.8357    58.9108    99.4387 </r>
       <r>    -1.6650    66.0856   105.6999 </r>
       <r>    -1.4944    76.2474   112.1260 </r>
       <r>    -1.3237    77.9794   119.8062 </r>
       <r>    -1.1531    98.3397   128.3552 </r>
       <r>    -0.9824   105.1632   136.7639 </r>
       <r>    -0.8117   103.0829   146.0263 </r>
       <r>    -0.6411   117.4929   155.9057 </r>
       <r>    -0.4704   104.4949   166.8032 </r>
       <r>    -0.2998   144.4029   177.9134 </r>
       <r>    -0.1291   120.6062   188.5005 </r>
       <r>     0.0416    93.9374   197.9620 </r>
       <r>     0.2122    53.5854   204.9578 </r>
       <r>     0.3829    52.9324   210.6552 </r>
       <r>     0.5535    42.6178   215.0110 </r>
       <r>     0.7242    74.9668   220.4091 </r>
       <r>     0.8948    57.0737   225.8696 </r>
       <r>     1.0655    88.7376   232.7096 </r>
       <r>     1.2362    78.3607   241.4294 </r>
       <r>     1.4068   108.0303   251.0558 </r>
       <r>     1.5775   114.2934   261.5807 </r>
       <r>     1.7481   123.2201   273.6643 </r>
       <r>     1.9188   106.9010   285.2442 </r>
       <r>     2.0894   149.5320   298.8460 </r>
       <r>     2.2601   187.3037   313.9892 </r>
       <r>     2.4308   171.4048   329.6180 </r>
       <r>     2.6014   151.5431   346.5205 </r>
       <r>     2.7721    96.2765   357.9580 </r>
       <r>     2.9427    68.2565   365.7546 </r>
       <r>     3.1134    71.4096   371.2524 </r>
       <r>     3.2841     1.0987   372.0000 </r>
       <r>     3.4547     0.0000   372.0000 </r>
       <r>     3.6254     0.0000   372.0000 </r>
       <r>     3.7960     0.0000   372.0000 </r>
       <r>     3.9667     0.0000   372.0000 </r>
       <r>     4.1373     0.0000   372.0000 </r>
       <r>     4.3080     0.0000   372.0000 </r>
       <r>     4.4787     0.0000   372.0000 </r>
       <r>     4.6493     0.0000   372.0000 </r>
       <r>     4.8200     0.0000   372.0000 </r>
       <r>     4.9906     0.0000   372.0000 </r>
       <r>     5.1613     0.0000   372.0000 </r>
       <r>     5.3319     0.0000   372.0000 </r>
       <r>     5.5026     0.0000   372.0000 </r>
      </set>
     </set>
    </array>
   </total>
  </dos>
 </calculation>
 <structure name="finalpos" >
  <crystal>
   <varray name="basis" >
    <v>       8.53269958       0.00000000       0.00000000 </v>
    <v>      -0.00051933       8.49699972       0.00000000 </v>
    <v>       0.00000000       0.00000000      23.59499931 </v>
   </varray>
   <i name="volume">   1710.69280467 </i>
   <varray name="rec_basis" >
    <v>       0.11719620       0.00000716       0.00000000 </v>
    <v>       0.00000000       0.11768860       0.00000000 </v>
    <v>       0.00000000       0.00000000       0.04238186 </v>
   </varray>
  </crystal>
  <varray name="positions" >
   <v>       0.00086000       0.99993000       0.24271000 </v>
   <v>       0.16563197       0.16689272       0.30267213 </v>
   <v>       0.49945875       0.16083156       0.30209605 </v>
   <v>       0.66822000       0.00107000       0.24272000 </v>
   <v>       0.83567803       0.16761142       0.30158044 </v>
   <v>       0.00044000       0.33497000       0.24240000 </v>
   <v>       0.16908596       0.50432933       0.30359207 </v>
   <v>       0.33469000       0.33305000       0.24267000 </v>
   <v>       0.49805898       0.50477233       0.30286473 </v>
   <v>       0.83356719       0.50066360       0.30142484 </v>
   <v>       0.16842387       0.83125233       0.30398063 </v>
   <v>       0.33342000       0.66555000       0.24261000 </v>
   <v>       0.83608298       0.83258393       0.30181335 </v>
   <v>       0.00064000       0.00119000       0.00199000 </v>
   <v>       0.00160129       0.00355220       0.36072032 </v>
   <v>       0.16843000       0.16962000       0.06269000 </v>
   <v>       0.33460000       0.00297000       0.00254000 </v>
   <v>       0.32931288       0.00423711       0.36192236 </v>
   <v>       0.50463000       0.16850000       0.06120000 </v>
   <v>       0.83272000       0.16670000       0.06193000 </v>
   <v>       0.00004000       0.33467000       0.00213000 </v>
   <v>       0.00341893       0.33559974       0.35955122 </v>
   <v>       0.16757000       0.49895000       0.06268000 </v>
   <v>       0.50099000       0.49896000       0.06206000 </v>
   <v>       0.83393000       0.50234000       0.06235000 </v>
   <v>       0.00121000       0.66785000       0.00188000 </v>
   <v>       0.99436039       0.66453337       0.36064469 </v>
   <v>       0.16792000       0.83462000       0.06228000 </v>
   <v>       0.33437000       0.66664000       0.00225000 </v>
   <v>       0.50152000       0.83563000       0.06217000 </v>
   <v>       0.66753000       0.66705000       0.00175000 </v>
   <v>       0.66820935       0.66599714       0.35878875 </v>
   <v>       0.83293000       0.83584000       0.06235000 </v>
   <v>       0.00121000       0.00098000       0.12225000 </v>
   <v>       0.16700000       0.16811000       0.18239000 </v>
   <v>       0.33470000       0.00227000       0.12192000 </v>
   <v>       0.50174000       0.16716000       0.18263000 </v>
   <v>       0.83421000       0.16639000       0.18283000 </v>
   <v>       0.16964000       0.49868000       0.18209000 </v>
   <v>       0.50219000       0.50081000       0.18317000 </v>
   <v>       0.66741000       0.33395000       0.12233000 </v>
   <v>       0.83134000       0.50253000       0.18283000 </v>
   <v>       0.00132000       0.66795000       0.12253000 </v>
   <v>       0.16898000       0.83509000       0.18243000 </v>
   <v>       0.33446000       0.66703000       0.12223000 </v>
   <v>       0.49971000       0.83538000       0.18278000 </v>
   <v>       0.66698000       0.66840000       0.12259000 </v>
   <v>       0.83488000       0.83403000       0.18294000 </v>
   <v>       0.33558000       0.99863000       0.24353000 </v>
   <v>       0.66801000       0.33262000       0.24229000 </v>
   <v>       0.00448000       0.66739000       0.24217000 </v>
   <v>       0.49537595       0.83504644       0.30398347 </v>
   <v>       0.66521000       0.67351000       0.24327000 </v>
   <v>       0.66620000       0.99680000       0.00000000 </v>
   <v>       0.66424298       0.99383088       0.36161919 </v>
   <v>       0.33213000       0.33386000       0.00135000 </v>
   <v>       0.33640112       0.33513058       0.36264845 </v>
   <v>       0.67040000       0.33673000       0.00321000 </v>
   <v>       0.66494304       0.33085229       0.36644380 </v>
   <v>       0.66728000       0.99998000       0.12246000 </v>
   <v>       0.99806000       0.33495000       0.12235000 </v>
   <v>       0.33675000       0.33238000       0.12261000 </v>
   <v>       0.49936276       0.14652796       0.44691521 </v>
  </varray>
  <varray name="selective"  type="logical" >
   <v type="logical" >  F  F  F </v>
   <v type="logical" >  T  T  T </v>
   <v type="logical" >  T  T  T </v>
   <v type="logical" >  F  F  F </v>
   <v type="logical" >  T  T  T </v>
   <v type="logical" >  F  F  F </v>
   <v type="logical" >  T  T  T </v>
   <v type="logical" >  F  F  F </v>
   <v type="logical" >  T  T  T </v>
   <v type="logical" >  T  T  T </v>
   <v type="logical" >  T  T  T </v>
   <v type="logical" >  F  F  F </v>
   <v type="logical" >  T  T  T </v>
   <v type="logical" >  F  F  F </v>
   <v type="logical" >  T  T  T </v>
   <v type="logical" >  F  F  F </v>
   <v type="logical" >  F  F  F </v>
   <v type="logical" >  T  T  T </v>
   <v type="logical" >  F  F  F </v>
   <v type="logical" >  F  F  F </v>
   <v type="logical" >  F  F  F </v>
   <v type="logical" >  T  T  T </v>
   <v type="logical" >  F  F  F </v>
   <v type="logical" >  F  F  F </v>
   <v type="logical" >  F  F  F </v>
   <v type="logical" >  F  F  F </v>
   <v type="logical" >  T  T  T </v>
   <v type="logical" >  F  F  F </v>
   <v type="logical" >  F  F  F </v>
   <v type="logical" >  F  F  F </v>
   <v type="logical" >  F  F  F </v>
   <v type="logical" >  T  T  T </v>
   <v type="logical" >  F  F  F </v>
   <v type="logical" >  F  F  F </v>
   <v type="logical" >  F  F  F </v>
   <v type="logical" >  F  F  F </v>
   <v type="logical" >  F  F  F </v>
   <v type="logical" >  F  F  F </v>
   <v type="logical" >  F  F  F </v>
   <v type="logical" >  F  F  F </v>
   <v type="logical" >  F  F  F </v>
   <v type="logical" >  F  F  F </v>
   <v type="logical" >  F  F  F </v>
   <v type="logical" >  F  F  F </v>
   <v type="logical" >  F  F  F </v>
   <v type="logical" >  F  F  F </v>
   <v type="logical" >  F  F  F </v>
   <v type="logical" >  F  F  F </v>
   <v type="logical" >  F  F  F </v>
   <v type="logical" >  F  F  F </v>
   <v type="logical" >  F  F  F </v>
   <v type="logical" >  T  T  T </v>
   <v type="logical" >  F  F  F </v>
   <v type="logical" >  F  F  F </v>
   <v type="logical" >  T  T  T </v>
   <v type="logical" >  F  F  F </v>
   <v type="logical" >  T  T  T </v>
   <v type="logical" >  F  F  F </v>
   <v type="logical" >  T  T  T </v>
   <v type="logical" >  F  F  F </v>
   <v type="logical" >  F  F  F </v>
   <v type="logical" >  F  F  F </v>
   <v type="logical" >  T  T  T </v>
  </varray>
  <nose>
   <v>      -3.00000000       0.00000000       0.00010000       0.00010000 </v>
  </nose>
 </structure>
</modeling>
