   63   63    1    2
  0.2715385E+02  0.8532700E-09  0.8497000E-09  0.2359500E-08  0.1000000E-16
  1.000000000000000E-004
  CAR 
 Fe2O3                                   
    566     10    371
 
  0.0000000E+00  0.0000000E+00  0.0000000E+00  0.6250000E-01
      1        -42.854750      -43.218898   1.000000   1.000000
      2        -42.777299      -43.192766   1.000000   1.000000
      3        -42.763602      -43.157200   1.000000   1.000000
      4        -42.762493      -43.142138   1.000000   1.000000
      5        -42.747511      -43.130192   1.000000   1.000000
      6        -42.735436      -43.118534   1.000000   1.000000
      7        -42.728438      -43.117498   1.000000   1.000000
      8        -42.724500      -43.112656   1.000000   1.000000
      9        -42.702500      -43.105059   1.000000   1.000000
     10        -42.695445      -43.095448   1.000000   1.000000
     11        -42.686045      -43.086674   1.000000   1.000000
     12        -42.678256      -43.083999   1.000000   1.000000
     13        -42.663981      -43.073522   1.000000   1.000000
     14        -42.658859      -43.070541   1.000000   1.000000
     15        -42.654406      -43.054872   1.000000   1.000000
     16        -42.142692      -43.044876   1.000000   1.000000
     17        -42.056709      -43.034235   1.000000   1.000000
     18        -41.996832      -43.018927   1.000000   1.000000
     19        -41.989160      -42.730194   1.000000   1.000000
     20        -41.978750      -42.695592   1.000000   1.000000
     21        -41.962761      -42.682807   1.000000   1.000000
     22        -41.812800      -42.618304   1.000000   1.000000
     23        -41.789613      -42.579836   1.000000   1.000000
     24        -41.784620      -42.529383   1.000000   1.000000
     25        -41.777137      -42.300176   1.000000   1.000000
     26        -41.771803      -42.104696   1.000000   1.000000
     27        -41.764575      -42.002002   1.000000   1.000000
     28        -41.760181      -40.428150   1.000000   1.000000
     29        -41.758905      -40.419174   1.000000   1.000000
     30        -41.741386      -40.132151   1.000000   1.000000
     31        -41.740501      -40.097219   1.000000   1.000000
     32        -41.724802      -40.022339   1.000000   1.000000
     33        -41.723290      -39.963778   1.000000   1.000000
     34        -41.718557      -39.888314   1.000000   1.000000
     35        -41.710565      -39.864968   1.000000   1.000000
     36        -41.698242      -39.812979   1.000000   1.000000
     37        -41.691852      -39.778528   1.000000   1.000000
     38        -41.668454      -39.758305   1.000000   1.000000
     39        -41.632788      -39.712419   1.000000   1.000000
     40        -40.151840      -39.685715   1.000000   1.000000
     41        -40.128413      -39.593350   1.000000   1.000000
     42        -39.999083      -39.564253   1.000000   1.000000
     43        -15.405141      -15.419425   1.000000   1.000000
     44        -15.391921      -15.400354   1.000000   1.000000
     45        -15.387160      -15.395416   1.000000   1.000000
     46        -15.376655      -15.382232   1.000000   1.000000
     47        -15.356467      -15.367664   1.000000   1.000000
     48         -7.732815       -7.736257   1.000000   1.000000
     49         -7.080917       -6.982958   1.000000   1.000000
     50         -6.061416       -5.885021   1.000000   1.000000
     51         -5.215343       -5.028098   1.000000   1.000000
     52         -5.173547       -5.004234   1.000000   1.000000
     53         -5.148316       -4.991745   1.000000   1.000000
     54         -5.127284       -4.956993   1.000000   1.000000
     55         -4.818206       -4.502847   1.000000   1.000000
     56         -4.577759       -4.255785   1.000000   1.000000
     57         -4.539566       -4.230430   1.000000   1.000000
     58         -4.513081       -4.180312   1.000000   1.000000
     59         -4.441498       -4.048810   1.000000   1.000000
     60         -4.081062       -3.640095   1.000000   1.000000
     61         -4.062386       -3.629841   1.000000   1.000000
     62         -4.050482       -3.579640   1.000000   1.000000
     63         -4.038942       -3.531221   1.000000   1.000000
     64         -4.002192       -3.460199   1.000000   1.000000
     65         -3.993715       -3.403499   1.000000   1.000000
     66         -3.971950       -3.348844   1.000000   1.000000
     67         -3.921423       -3.291026   1.000000   1.000000
     68         -3.756774       -3.094994   1.000000   1.000000
     69         -3.736426       -2.851021   1.000000   1.000000
     70         -3.662544       -2.839599   1.000000   1.000000
     71         -3.591512       -2.780974   1.000000   1.000000
     72         -3.549268       -2.762082   1.000000   1.000000
     73         -3.531266       -2.718350   1.000000   1.000000
     74         -3.508916       -2.682142   1.000000   1.000000
     75         -3.394167       -2.617905   1.000000   1.000000
     76         -3.366627       -2.591854   1.000000   1.000000
     77         -3.353890       -2.578171   1.000000   1.000000
     78         -3.350917       -2.491830   1.000000   1.000000
     79         -3.331623       -2.376945   1.000000   1.000000
     80         -3.319904       -2.327507   1.000000   1.000000
     81         -3.297425       -2.310350   1.000000   1.000000
     82         -3.269939       -2.264828   1.000000   1.000000
     83         -3.243219       -2.248882   1.000000   1.000000
     84         -3.238185       -2.212126   1.000000   1.000000
     85         -3.218982       -2.200604   1.000000   1.000000
     86         -3.210229       -2.162486   1.000000   1.000000
     87         -3.199194       -2.098698   1.000000   1.000000
     88         -3.188237       -2.072291   1.000000   1.000000
     89         -3.164662       -2.063612   1.000000   1.000000
     90         -3.152242       -2.056533   1.000000   1.000000
     91         -3.127472       -2.004973   1.000000   1.000000
     92         -3.123765       -1.988611   1.000000   1.000000
     93         -3.073322       -1.966096   1.000000   1.000000
     94         -3.060092       -1.921650   1.000000   1.000000
     95         -3.033283       -1.899654   1.000000   1.000000
     96         -2.924827       -1.863178   1.000000   1.000000
     97         -2.916452       -1.800137   1.000000   1.000000
     98         -2.896417       -1.754990   1.000000   1.000000
     99         -2.887287       -1.743518   1.000000   1.000000
    100         -2.869793       -1.709776   1.000000   1.000000
    101         -2.865272       -1.701044   1.000000   1.000000
    102         -2.845686       -1.680353   1.000000   1.000000
    103         -2.831614       -1.636521   1.000000   1.000000
    104         -2.824673       -1.603007   1.000000   1.000000
    105         -2.806890       -1.570465   1.000000   1.000000
    106         -2.800435       -1.553805   1.000000   1.000000
    107         -2.779744       -1.501484   1.000000   1.000000
    108         -2.748717       -1.496259   1.000000   1.000000
    109         -2.734687       -1.490692   1.000000   1.000000
    110         -2.675754       -1.450321   1.000000   1.000000
    111         -2.633937       -1.444287   1.000000   1.000000
    112         -2.611132       -1.424999   1.000000   1.000000
    113         -2.570208       -1.397567   1.000000   1.000000
    114         -2.560355       -1.374148   1.000000   1.000000
    115         -2.547813       -1.367855   1.000000   1.000000
    116         -2.541145       -1.317676   1.000000   1.000000
    117         -2.527571       -1.313704   1.000000   1.000000
    118         -2.513486       -1.293796   1.000000   1.000000
    119         -2.502198       -1.276422   1.000000   1.000000
    120         -2.492562       -1.228832   1.000000   1.000000
    121         -2.479991       -1.214473   1.000000   1.000000
    122         -2.473821       -1.211519   1.000000   1.000000
    123         -2.456818       -1.193862   1.000000   1.000000
    124         -2.452759       -1.173267   1.000000   1.000000
    125         -2.438272       -1.155575   1.000000   1.000000
    126         -2.429644       -1.121205   1.000000   1.000000
    127         -2.421546       -1.097332   1.000000   1.000000
    128         -2.414851       -1.075219   1.000000   1.000000
    129         -2.403880       -1.057437   1.000000   1.000000
    130         -2.383025       -1.040239   1.000000   1.000000
    131         -2.375307       -1.033245   1.000000   1.000000
    132         -2.366575       -1.023419   1.000000   1.000000
    133         -2.350637       -0.992041   1.000000   1.000000
    134         -2.335886       -0.978837   1.000000   1.000000
    135         -2.333589       -0.969449   1.000000   1.000000
    136         -2.322317       -0.937164   1.000000   1.000000
    137         -2.300974       -0.922202   1.000000   1.000000
    138         -2.298067       -0.903491   1.000000   1.000000
    139         -2.288823       -0.895450   1.000000   1.000000
    140         -2.276376       -0.878973   1.000000   1.000000
    141         -2.264434       -0.856063   1.000000   1.000000
    142         -2.256151       -0.850563   1.000000   1.000000
    143         -2.243359       -0.833002   1.000000   1.000000
    144         -2.230318       -0.823464   1.000000   1.000000
    145         -2.226904       -0.811806   1.000000   1.000000
    146         -2.206496       -0.794115   1.000000   1.000000
    147         -2.196192       -0.768342   1.000000   1.000000
    148         -2.174193       -0.751363   1.000000   1.000000
    149         -2.170142       -0.743721   1.000000   1.000000
    150         -2.150251       -0.721321   1.000000   1.000000
    151         -2.146176       -0.702884   1.000000   1.000000
    152         -2.138126       -0.683522   1.000000   1.000000
    153         -2.119112       -0.678890   1.000000   1.000000
    154         -2.109790       -0.659552   1.000000   1.000000
    155         -2.082546       -0.637338   1.000000   1.000000
    156         -2.058066       -0.627419   1.000000   1.000000
    157         -2.050786       -0.606844   1.000000   1.000000
    158         -2.038263       -0.581694   1.000000   1.000000
    159         -2.030883       -0.570338   1.000000   1.000000
    160         -2.026476       -0.536443   1.000000   1.000000
    161         -1.998774       -0.525461   1.000000   1.000000
    162         -1.989777       -0.523180   1.000000   1.000000
    163         -1.983582       -0.505204   1.000000   1.000000
    164         -1.955176       -0.477655   1.000000   1.000000
    165         -1.943643       -0.459391   1.000000   1.000000
    166         -1.935941       -0.434658   1.000000   1.000000
    167         -1.925387       -0.430937   1.000000   1.000000
    168         -1.898644       -0.404257   1.000000   1.000000
    169         -1.887612       -0.397358   1.000000   1.000000
    170         -1.864564       -0.381904   1.000000   1.000000
    171         -1.855336       -0.344361   1.000000   1.000000
    172         -1.853403       -0.334913   1.000000   1.000000
    173         -1.832176       -0.310528   1.000000   1.000000
    174         -1.818863       -0.288132   1.000000   1.000000
    175         -1.814928       -0.275483   1.000000   1.000000
    176         -1.807026       -0.248838   1.000000   1.000000
    177         -1.789771       -0.226484   1.000000   1.000000
    178         -1.763769       -0.216537   1.000000   1.000000
    179         -1.750036       -0.202240   1.000000   1.000000
    180         -1.742347       -0.189134   1.000000   1.000000
    181         -1.719972       -0.174456   1.000000   1.000000
    182         -1.699678       -0.160075   1.000000   1.000000
    183         -1.689180       -0.149770   1.000000   1.000000
    184         -1.676152       -0.129009   1.000000   1.000000
    185         -1.665355       -0.121391   1.000000   1.000000
    186         -1.661758       -0.107643   1.000000   1.000000
    187         -1.643805       -0.093736   1.000000   1.000000
    188         -1.611915       -0.081857   1.000000   1.000000
    189         -1.600449       -0.035869   1.000000   1.000000
    190         -1.572053       -0.023614   1.000000   1.000000
    191         -1.553589        0.000669   1.000000   1.000000
    192         -1.534366        0.045695   1.000000   1.000000
    193         -1.529686        0.050999   1.000000   1.000000
    194         -1.485571        0.061342   1.000000   1.000000
    195         -1.475946        0.081126   1.000000   1.000000
    196         -1.459582        0.098999   1.000000   1.000000
    197         -1.441970        0.114782   1.000000   1.000000
    198         -1.417452        0.179157   1.000000   1.000000
    199         -1.410684        0.212174   1.000000   1.000000
    200         -1.396233        0.235609   1.000000   1.000000
    201         -1.373738        0.268122   1.000000   1.000000
    202         -1.346686        0.307541   1.000000   1.000000
    203         -1.336259        0.328530   1.000000   1.000000
    204         -1.310727        0.338053   1.000000   1.000000
    205         -1.297610        0.364915   1.000000   1.000000
    206         -1.283745        0.376717   1.000000   1.000000
    207         -1.279541        0.397638   1.000000   1.000000
    208         -1.256055        0.416963   1.000000   1.000000
    209         -1.245146        0.430319   1.000000   1.000000
    210         -1.222715        0.466662   1.000000   1.000000
    211         -1.197341        0.515389   1.000000   1.000000
    212         -1.181068        0.538359   1.000000   1.000000
    213         -1.156178        0.555754   1.000000   1.000000
    214         -1.131036        0.601783   1.000000   1.000000
    215         -1.111837        0.613715   1.000000   1.000000
    216         -1.082732        0.634152   1.000000   1.000000
    217         -1.076335        0.679114   1.000000   1.000008
    218         -1.062083        0.693650   1.000000   1.000019
    219         -1.034396        0.711464   1.000000   1.000056
    220         -1.025532        0.750358   1.000000   1.000454
    221         -1.009716        0.761156   1.000000   1.000762
    222         -0.988635        0.800358   1.000000   1.003984
    223         -0.966997        0.811106   1.000000   1.005873
    224         -0.956105        0.833049   1.000000   1.011802
    225         -0.939732        0.904567   1.000000   1.034693
    226         -0.923316        0.927739   1.000000   1.015593
    227         -0.900055        0.946304   1.000000   0.973069
    228         -0.881050        0.959470   1.000000   0.923726
    229         -0.870873        1.007172   1.000000   0.610082
    230         -0.860847        1.037362   1.000000   0.357950
    231         -0.846395        1.121248   1.000000  -0.026078
    232         -0.819374        1.177181   1.000000  -0.024512
    233         -0.810221        1.190773   1.000000  -0.018344
    234         -0.778699        1.198179   1.000000  -0.015262
    235         -0.756217        1.222515   1.000000  -0.007439
    236         -0.737851        1.241583   1.000000  -0.003789
    237         -0.734910        1.245572   1.000000  -0.003252
    238         -0.714494        1.267092   1.000000  -0.001335
    239         -0.698128        1.273135   1.000000  -0.001019
    240         -0.674231        1.296475   1.000000  -0.000333
    241         -0.653700        1.305038   1.000000  -0.000214
    242         -0.647317        1.313731   1.000000  -0.000134
    243         -0.609660        1.330426   1.000000  -0.000052
    244         -0.605420        1.336120   1.000000  -0.000038
    245         -0.578933        1.348983   1.000000  -0.000017
    246         -0.570693        1.368116   1.000000  -0.000005
    247         -0.558088        1.386606   1.000000  -0.000001
    248         -0.546170        1.402501   1.000000  -0.000000
    249         -0.544797        1.426018   1.000000  -0.000000
    250         -0.509060        1.441770   1.000000  -0.000000
    251         -0.504693        1.453797   1.000000  -0.000000
    252         -0.487486        1.468986   1.000000  -0.000000
    253         -0.466869        1.474403   1.000000  -0.000000
    254         -0.444924        1.496321   1.000000  -0.000000
    255         -0.442221        1.509545   1.000000  -0.000000
    256         -0.432857        1.537095   1.000000  -0.000000
    257         -0.421507        1.556243   1.000000  -0.000000
    258         -0.406749        1.565520   1.000000  -0.000000
    259         -0.392538        1.597920   1.000000  -0.000000
    260         -0.385498        1.602273   1.000000  -0.000000
    261         -0.379579        1.630439   1.000000  -0.000000
    262         -0.365036        1.634346   1.000000  -0.000000
    263         -0.360879        1.645845   1.000000  -0.000000
    264         -0.343147        1.672114   1.000000  -0.000000
    265         -0.330648        1.685638   1.000000  -0.000000
    266         -0.316838        1.699881   1.000000  -0.000000
    267         -0.311276        1.707949   1.000000  -0.000000
    268         -0.296761        1.726030   1.000000  -0.000000
    269         -0.296354        1.753125   1.000000  -0.000000
    270         -0.275078        1.765799   1.000000  -0.000000
    271         -0.265762        1.772909   1.000000  -0.000000
    272         -0.261299        1.783919   1.000000  -0.000000
    273         -0.247576        1.806681   1.000000  -0.000000
    274         -0.241685        1.818423   1.000000  -0.000000
    275         -0.235544        1.832732   1.000000  -0.000000
    276         -0.224219        1.839727   1.000000  -0.000000
    277         -0.210513        1.857381   1.000000  -0.000000
    278         -0.202364        1.875147   1.000000  -0.000000
    279         -0.189272        1.898762   1.000000  -0.000000
    280         -0.176479        1.905991   1.000000  -0.000000
    281         -0.171189        1.933886   1.000000  -0.000000
    282         -0.167107        1.937189   1.000000  -0.000000
    283         -0.142001        1.961467   1.000000  -0.000000
    284         -0.130742        1.981028   1.000000  -0.000000
    285         -0.121322        1.998407   1.000000  -0.000000
    286         -0.114138        2.005990   1.000000  -0.000000
    287         -0.086797        2.013787   1.000000  -0.000000
    288         -0.076934        2.025092   1.000000  -0.000000
    289         -0.073559        2.055862   1.000000  -0.000000
    290         -0.059392        2.070029   1.000000  -0.000000
    291         -0.043804        2.078839   1.000000  -0.000000
    292         -0.032590        2.094671   1.000000  -0.000000
    293         -0.017366        2.108350   1.000000  -0.000000
    294         -0.015631        2.113461   1.000000  -0.000000
    295          0.008857        2.125513   1.000000  -0.000000
    296          0.018184        2.140596   1.000000  -0.000000
    297          0.035854        2.150016   1.000000  -0.000000
    298          0.041769        2.157475   1.000000  -0.000000
    299          0.055889        2.181328   1.000000  -0.000000
    300          0.074367        2.185456   1.000000  -0.000000
    301          0.087761        2.207021   1.000000  -0.000000
    302          0.115314        2.215965   1.000000  -0.000000
    303          0.147115        2.231548   1.000000  -0.000000
    304          0.160157        2.233874   1.000000  -0.000000
    305          0.170372        2.249441   1.000000  -0.000000
    306          0.186829        2.269150   1.000000  -0.000000
    307          0.206764        2.281667   1.000000  -0.000000
    308          0.211179        2.289333   1.000000  -0.000000
    309          0.222845        2.295187   1.000000  -0.000000
    310          0.237956        2.301806   1.000000  -0.000000
    311          0.283234        2.309705   1.000000  -0.000000
    312          0.302477        2.319465   1.000000  -0.000000
    313          0.325894        2.330113   1.000000  -0.000000
    314          0.346286        2.337664   1.000000  -0.000000
    315          0.361983        2.347414   1.000000  -0.000000
    316          0.405676        2.349143   1.000000  -0.000000
    317          0.407206        2.352743   1.000000  -0.000000
    318          0.421596        2.361507   1.000000  -0.000000
    319          0.440493        2.374270   1.000000  -0.000000
    320          0.466148        2.383808   1.000000  -0.000000
    321          0.503411        2.404126   1.000000  -0.000000
    322          0.541877        2.408376   1.000000  -0.000000
    323          0.554742        2.427208   1.000000  -0.000000
    324          0.578511        2.429257   1.000000  -0.000000
    325          0.584692        2.431531   1.000000  -0.000000
    326          0.611079        2.445849   1.000000  -0.000000
    327          0.632320        2.461065   1.000000  -0.000000
    328          0.658361        2.475632   1.000002  -0.000000
    329          0.663847        2.477177   1.000003  -0.000000
    330          0.710137        2.490711   1.000052  -0.000000
    331          0.718941        2.501342   1.000087  -0.000000
    332          0.727785        2.513818   1.000141  -0.000000
    333          0.741355        2.526037   1.000289  -0.000000
    334          0.761327        2.536977   1.000768  -0.000000
    335          0.771586        2.554279   1.001226  -0.000000
    336          0.823703        2.558129   1.008909  -0.000000
    337          0.830177        2.580458   1.010853  -0.000000
    338          0.873818        2.592829   1.029186  -0.000000
    339          0.941576        2.595052   0.986722  -0.000000
    340          0.957034        2.618322   0.934150  -0.000000
    341          0.974532        2.622921   0.846002  -0.000000
    342          1.060111        2.646830   0.190898  -0.000000
    343          1.082302        2.659569   0.071223  -0.000000
    344          1.118743        2.674136  -0.023429  -0.000000
    345          1.185287        2.683430  -0.020781  -0.000000
    346          1.218149        2.695183  -0.008566  -0.000000
    347          1.244387        2.697913  -0.003405  -0.000000
    348          1.266007        2.715618  -0.001400  -0.000000
    349          1.312268        2.736235  -0.000145  -0.000000
    350          1.339612        2.758809  -0.000030  -0.000000
    351          1.387876        2.771809  -0.000001  -0.000000
    352          1.401769        2.813404  -0.000000  -0.000000
    353          1.432840        2.833237  -0.000000  -0.000000
    354          1.470860        2.838121  -0.000000  -0.000000
    355          1.474535        2.864611  -0.000000  -0.000000
    356          1.494905        2.896273  -0.000000  -0.000000
    357          1.511913        2.929112  -0.000000  -0.000000
    358          1.528678        2.954591  -0.000000  -0.000000
    359          1.568119        2.966407  -0.000000  -0.000000
    360          1.594773        2.981433  -0.000000  -0.000000
    361          1.613093        2.999258  -0.000000  -0.000000
    362          1.652499        3.021739  -0.000000  -0.000000
    363          1.671253        3.072003  -0.000000  -0.000000
    364          1.675583        3.088674  -0.000000  -0.000000
    365          1.692347        3.107176  -0.000000  -0.000000
    366          1.765622        3.117272  -0.000000  -0.000000
    367          1.803420        3.145049  -0.000000  -0.000000
    368          1.816006        3.168769  -0.000000  -0.000000
    369          1.850446        3.193291  -0.000000  -0.000000
    370          1.877242        3.215580  -0.000000  -0.000000
    371          1.888828        3.245033  -0.000000  -0.000000
 
  0.2500000E+00  0.6721729E-20  0.0000000E+00  0.1250000E+00
      1        -42.854752      -43.218903   1.000000   1.000000
      2        -42.777299      -43.192764   1.000000   1.000000
      3        -42.763594      -43.157203   1.000000   1.000000
      4        -42.762500      -43.142145   1.000000   1.000000
      5        -42.747513      -43.130195   1.000000   1.000000
      6        -42.735441      -43.118531   1.000000   1.000000
      7        -42.728434      -43.117499   1.000000   1.000000
      8        -42.724507      -43.112658   1.000000   1.000000
      9        -42.702502      -43.105042   1.000000   1.000000
     10        -42.695445      -43.095477   1.000000   1.000000
     11        -42.686052      -43.086665   1.000000   1.000000
     12        -42.678264      -43.084002   1.000000   1.000000
     13        -42.664006      -43.073530   1.000000   1.000000
     14        -42.658866      -43.070541   1.000000   1.000000
     15        -42.654409      -43.054872   1.000000   1.000000
     16        -42.142699      -43.044881   1.000000   1.000000
     17        -42.056716      -43.034234   1.000000   1.000000
     18        -41.996816      -43.018961   1.000000   1.000000
     19        -41.989163      -42.730200   1.000000   1.000000
     20        -41.978756      -42.695601   1.000000   1.000000
     21        -41.962765      -42.682812   1.000000   1.000000
     22        -41.812799      -42.618308   1.000000   1.000000
     23        -41.789597      -42.579847   1.000000   1.000000
     24        -41.784626      -42.529382   1.000000   1.000000
     25        -41.777147      -42.300172   1.000000   1.000000
     26        -41.771812      -42.104705   1.000000   1.000000
     27        -41.764598      -42.002005   1.000000   1.000000
     28        -41.760170      -40.428148   1.000000   1.000000
     29        -41.758907      -40.419177   1.000000   1.000000
     30        -41.741409      -40.132153   1.000000   1.000000
     31        -41.740484      -40.097225   1.000000   1.000000
     32        -41.724804      -40.022344   1.000000   1.000000
     33        -41.723295      -39.963795   1.000000   1.000000
     34        -41.718563      -39.888311   1.000000   1.000000
     35        -41.710578      -39.864967   1.000000   1.000000
     36        -41.698251      -39.812987   1.000000   1.000000
     37        -41.691872      -39.778527   1.000000   1.000000
     38        -41.668463      -39.758315   1.000000   1.000000
     39        -41.632788      -39.712430   1.000000   1.000000
     40        -40.151838      -39.685721   1.000000   1.000000
     41        -40.128427      -39.593355   1.000000   1.000000
     42        -39.999089      -39.564260   1.000000   1.000000
     43        -15.405111      -15.419404   1.000000   1.000000
     44        -15.391919      -15.400366   1.000000   1.000000
     45        -15.387180      -15.395415   1.000000   1.000000
     46        -15.376643      -15.382223   1.000000   1.000000
     47        -15.356469      -15.367666   1.000000   1.000000
     48         -7.698663       -7.710542   1.000000   1.000000
     49         -6.964872       -6.862222   1.000000   1.000000
     50         -6.031870       -5.877589   1.000000   1.000000
     51         -5.900339       -5.741669   1.000000   1.000000
     52         -5.155813       -4.929259   1.000000   1.000000
     53         -5.070269       -4.882341   1.000000   1.000000
     54         -5.005338       -4.821262   1.000000   1.000000
     55         -4.713601       -4.408775   1.000000   1.000000
     56         -4.463100       -4.123637   1.000000   1.000000
     57         -4.426527       -4.112722   1.000000   1.000000
     58         -4.384286       -4.076292   1.000000   1.000000
     59         -4.328955       -4.048675   1.000000   1.000000
     60         -4.302263       -4.000468   1.000000   1.000000
     61         -4.150814       -3.706424   1.000000   1.000000
     62         -4.059808       -3.516175   1.000000   1.000000
     63         -3.958123       -3.331843   1.000000   1.000000
     64         -3.901090       -3.290319   1.000000   1.000000
     65         -3.889381       -3.258947   1.000000   1.000000
     66         -3.821109       -3.228572   1.000000   1.000000
     67         -3.784616       -3.183469   1.000000   1.000000
     68         -3.703300       -3.147205   1.000000   1.000000
     69         -3.696480       -3.118969   1.000000   1.000000
     70         -3.675665       -2.968208   1.000000   1.000000
     71         -3.662623       -2.827497   1.000000   1.000000
     72         -3.606083       -2.746586   1.000000   1.000000
     73         -3.540517       -2.729248   1.000000   1.000000
     74         -3.491640       -2.685699   1.000000   1.000000
     75         -3.473876       -2.578618   1.000000   1.000000
     76         -3.453452       -2.549893   1.000000   1.000000
     77         -3.438927       -2.531076   1.000000   1.000000
     78         -3.418399       -2.506907   1.000000   1.000000
     79         -3.381073       -2.465956   1.000000   1.000000
     80         -3.358672       -2.408616   1.000000   1.000000
     81         -3.329194       -2.398108   1.000000   1.000000
     82         -3.274386       -2.360698   1.000000   1.000000
     83         -3.229420       -2.265977   1.000000   1.000000
     84         -3.211894       -2.244585   1.000000   1.000000
     85         -3.183605       -2.216273   1.000000   1.000000
     86         -3.172505       -2.143945   1.000000   1.000000
     87         -3.165721       -2.116703   1.000000   1.000000
     88         -3.155425       -2.064134   1.000000   1.000000
     89         -3.141169       -2.049959   1.000000   1.000000
     90         -3.133933       -1.995307   1.000000   1.000000
     91         -3.118745       -1.974120   1.000000   1.000000
     92         -3.095082       -1.966635   1.000000   1.000000