       N       E                     dE             d eps       ncg     rms          rms(c)
DAV:   1    -0.504969261324E+03   -0.50497E+03   -0.30450E-01 19592   0.309E+00
DAV:   2    -0.504972707427E+03   -0.34461E-02   -0.34461E-02 19848   0.434E-01
DAV:   3    -0.504972928564E+03   -0.22114E-03   -0.22113E-03 23776   0.531E-02
DAV:   4    -0.504972934722E+03   -0.61581E-05   -0.61580E-05 20560   0.120E-02
DAV:   5    -0.504972935180E+03   -0.45789E-06   -0.45794E-06 12680   0.277E-03
   1 F= -.50497294E+03 E0= -.50497615E+03  d E =0.965025E-02  mag=   112.5533
