Fe2O3                                   
           1
     8.532700    0.000000    0.000000
    -0.000519    8.497000    0.000000
     0.000000    0.000000   23.594999
   Fe   Cr   Pb
    48    14     1
Direct configuration=     1
   0.00086000  0.99993000  0.24271000
   0.16437447  0.16799707  0.30311398
   0.49939323  0.16235766  0.30056017
   0.66822000  0.00107000  0.24272000
   0.83475155  0.16734451  0.30224043
   0.00044000  0.33497000  0.24240000
   0.16842448  0.50179797  0.30397618
   0.33469000  0.33305000  0.24267000
   0.49985389  0.50530510  0.30177478
   0.83399883  0.50065338  0.30159637
   0.16876293  0.83290627  0.30441664
   0.33342000  0.66555000  0.24261000
   0.83611603  0.83268947  0.30235251
   0.00064000  0.00119000  0.00199000
   0.00106707  0.00267859  0.36022628
   0.16843000  0.16962000  0.06269000
   0.33460000  0.00297000  0.00254000
   0.33202674  0.01155532  0.36260148
   0.50463000  0.16850000  0.06120000
   0.83272000  0.16670000  0.06193000
   0.00004000  0.33467000  0.00213000
   0.00222373  0.33643840  0.36031532
   0.16757000  0.49895000  0.06268000
   0.50099000  0.49896000  0.06206000
   0.83393000  0.50234000  0.06235000
   0.00121000  0.66785000  0.00188000
   0.99493737  0.66397820  0.36129385
   0.16792000  0.83462000  0.06228000
   0.33437000  0.66664000  0.00225000
   0.50152000  0.83563000  0.06217000
   0.66753000  0.66705000  0.00175000
   0.66908296  0.66613945  0.35902760
   0.83293000  0.83584000  0.06235000
   0.00121000  0.00098000  0.12225000
   0.16700000  0.16811000  0.18239000
   0.33470000  0.00227000  0.12192000
   0.50174000  0.16716000  0.18263000
   0.83421000  0.16639000  0.18283000
   0.16964000  0.49868000  0.18209000
   0.50219000  0.50081000  0.18317000
   0.66741000  0.33395000  0.12233000
   0.83134000  0.50253000  0.18283000
   0.00132000  0.66795000  0.12253000
   0.16898000  0.83509000  0.18243000
   0.33446000  0.66703000  0.12223000
   0.49971000  0.83538000  0.18278000
   0.66698000  0.66840000  0.12259000
   0.83488000  0.83403000  0.18294000
   0.33558000  0.99863000  0.24353000
   0.66801000  0.33262000  0.24229000
   0.00448000  0.66739000  0.24217000
   0.49786758  0.83627137  0.30245981
   0.66521000  0.67351000  0.24327000
   0.66620000  0.99680000  0.00000000
   0.65715550  0.99889406  0.36399298
   0.33213000  0.33386000  0.00135000
   0.33941913  0.32014515  0.36420188
   0.67040000  0.33673000  0.00321000
   0.65816747  0.33138650  0.36678086
   0.66728000  0.99998000  0.12246000
   0.99806000  0.33495000  0.12235000
   0.33675000  0.33238000  0.12261000
   0.33433153  0.67061631  0.39603825
