  64  64   0   0
  0.2672958E+02  0.8532700E-09  0.8497000E-09  0.2359500E-08  0.5000000E-15
  1.000000000000000E-004
  CAR 
 ni3al                                   
      5.61615122    -45.55758850  301      1.05591657      1.00000000
    -45.558  0.0000E+00  0.0000E+00  0.0000E+00  0.0000E+00
    -45.387  0.0000E+00  0.0000E+00  0.0000E+00  0.0000E+00
    -45.216  0.0000E+00  0.0000E+00  0.0000E+00  0.0000E+00
    -45.046  0.0000E+00  0.0000E+00  0.0000E+00  0.0000E+00
    -44.875  0.0000E+00  0.0000E+00  0.0000E+00  0.0000E+00
    -44.705  0.0000E+00  0.0000E+00  0.0000E+00  0.0000E+00
    -44.534  0.0000E+00 -0.1164E-33  0.0000E+00 -0.1985E-34
    -44.364  0.0000E+00 -0.1101E-25  0.0000E+00 -0.1878E-26
    -44.193  0.0000E+00 -0.7743E-19  0.0000E+00 -0.1321E-19
    -44.022 -0.3413E-33 -0.3891E-13 -0.5822E-34 -0.6638E-14
    -43.852 -0.2751E-25 -0.1461E-08 -0.4692E-26 -0.2493E-09
    -43.681 -0.1668E-18 -0.3927E-05 -0.2845E-19 -0.6701E-06
    -43.511 -0.7350E-13 -0.7137E-03 -0.1254E-13 -0.1224E-03
    -43.340 -0.2480E-08 -0.4602E-02 -0.4230E-09 -0.9075E-03
    -43.169 -0.6158E-05  0.8821E-01 -0.1051E-05  0.1414E-01
    -42.999 -0.1042E-02  0.2616E+00 -0.1788E-03  0.5877E-01
    -42.828 -0.2819E-02  0.7862E-01 -0.6597E-03  0.7218E-01
    -42.658  0.1190E+00  0.5491E-01  0.1964E-01  0.8155E-01
    -42.487  0.1233E+00  0.4875E-01  0.4066E-01  0.8986E-01
    -42.317 -0.3033E-02  0.1485E-02  0.4015E-01  0.9012E-01
    -42.146  0.2498E-01 -0.6703E-03  0.4441E-01  0.9000E-01
    -41.975  0.3427E-01 -0.5562E-04  0.5025E-01  0.8999E-01
    -41.805  0.1084E+00 -0.9710E-03  0.6874E-01  0.8983E-01
    -41.634  0.2276E+00  0.9861E-02  0.1076E+00  0.9151E-01
    -41.464  0.7951E-01  0.4006E-01  0.1211E+00  0.9834E-01
    -41.293 -0.6185E-02  0.1099E-01  0.1201E+00  0.1002E+00
    -41.123 -0.4528E-03 -0.1237E-02  0.1200E+00  0.1000E+00
    -40.952 -0.1432E-05 -0.3382E-04  0.1200E+00  0.1000E+00
    -40.781 -0.2459E-07 -0.1430E-04  0.1200E+00  0.1000E+00
    -40.611 -0.2338E-04 -0.8724E-03  0.1200E+00  0.9985E-01
    -40.440 -0.1274E-02  0.6598E-02  0.1198E+00  0.1010E+00
    -40.270  0.7091E-02  0.3059E-01  0.1210E+00  0.1062E+00
    -40.099  0.6854E-01  0.7705E-02  0.1327E+00  0.1075E+00
    -39.928  0.4384E-01  0.2775E-01  0.1402E+00  0.1122E+00
    -39.758 -0.4649E-03  0.4634E-01  0.1401E+00  0.1201E+00
    -39.587 -0.4527E-03  0.3941E-01  0.1400E+00  0.1269E+00
    -39.417 -0.3897E-05  0.2786E-01  0.1400E+00  0.1316E+00
    -39.246 -0.2181E-08  0.4303E-01  0.1400E+00  0.1390E+00
    -39.076 -0.8495E-13  0.7119E-02  0.1400E+00  0.1402E+00
    -38.905  0.0000E+00 -0.9949E-03  0.1400E+00  0.1400E+00
    -38.734  0.0000E+00 -0.2322E-04  0.1400E+00  0.1400E+00
    -38.564  0.0000E+00 -0.3023E-07  0.1400E+00  0.1400E+00
    -38.393  0.0000E+00 -0.2689E-11  0.1400E+00  0.1400E+00
    -38.223  0.0000E+00 -0.1736E-16  0.1400E+00  0.1400E+00
    -38.052  0.0000E+00  0.0000E+00  0.1400E+00  0.1400E+00
    -37.882  0.0000E+00  0.0000E+00  0.1400E+00  0.1400E+00
    -37.711  0.0000E+00  0.0000E+00  0.1400E+00  0.1400E+00
    -37.540  0.0000E+00  0.0000E+00  0.1400E+00  0.1400E+00
    -37.370  0.0000E+00  0.0000E+00  0.1400E+00  0.1400E+00
    -37.199  0.0000E+00  0.0000E+00  0.1400E+00  0.1400E+00
    -37.029  0.0000E+00  0.0000E+00  0.1400E+00  0.1400E+00
    -36.858  0.0000E+00  0.0000E+00  0.1400E+00  0.1400E+00
    -36.687  0.0000E+00  0.0000E+00  0.1400E+00  0.1400E+00
    -36.517  0.0000E+00  0.0000E+00  0.1400E+00  0.1400E+00
    -36.346  0.0000E+00  0.0000E+00  0.1400E+00  0.1400E+00
    -36.176  0.0000E+00  0.0000E+00  0.1400E+00  0.1400E+00
    -36.005  0.0000E+00  0.0000E+00  0.1400E+00  0.1400E+00
    -35.835  0.0000E+00  0.0000E+00  0.1400E+00  0.1400E+00
    -35.664  0.0000E+00  0.0000E+00  0.1400E+00  0.1400E+00
    -35.493  0.0000E+00  0.0000E+00  0.1400E+00  0.1400E+00
    -35.323  0.0000E+00  0.0000E+00  0.1400E+00  0.1400E+00
    -35.152  0.0000E+00  0.0000E+00  0.1400E+00  0.1400E+00
    -34.982  0.0000E+00  0.0000E+00  0.1400E+00  0.1400E+00
    -34.811  0.0000E+00  0.0000E+00  0.1400E+00  0.1400E+00
    -34.641  0.0000E+00  0.0000E+00  0.1400E+00  0.1400E+00
    -34.470  0.0000E+00  0.0000E+00  0.1400E+00  0.1400E+00
    -34.299  0.0000E+00  0.0000E+00  0.1400E+00  0.1400E+00
    -34.129  0.0000E+00  0.0000E+00  0.1400E+00  0.1400E+00
    -33.958  0.0000E+00  0.0000E+00  0.1400E+00  0.1400E+00
    -33.788  0.0000E+00  0.0000E+00  0.1400E+00  0.1400E+00
    -33.617  0.0000E+00  0.0000E+00  0.1400E+00  0.1400E+00
    -33.446  0.0000E+00  0.0000E+00  0.1400E+00  0.1400E+00
    -33.276  0.0000E+00  0.0000E+00  0.1400E+00  0.1400E+00
    -33.105  0.0000E+00  0.0000E+00  0.1400E+00  0.1400E+00
    -32.935  0.0000E+00  0.0000E+00  0.1400E+00  0.1400E+00
    -32.764  0.0000E+00  0.0000E+00  0.1400E+00  0.1400E+00
    -32.594  0.0000E+00  0.0000E+00  0.1400E+00  0.1400E+00
    -32.423  0.0000E+00  0.0000E+00  0.1400E+00  0.1400E+00
    -32.252  0.0000E+00  0.0000E+00  0.1400E+00  0.1400E+00
    -32.082  0.0000E+00  0.0000E+00  0.1400E+00  0.1400E+00
    -31.911  0.0000E+00  0.0000E+00  0.1400E+00  0.1400E+00
    -31.741  0.0000E+00  0.0000E+00  0.1400E+00  0.1400E+00
    -31.570  0.0000E+00  0.0000E+00  0.1400E+00  0.1400E+00
    -31.400  0.0000E+00  0.0000E+00  0.1400E+00  0.1400E+00
    -31.229  0.0000E+00  0.0000E+00  0.1400E+00  0.1400E+00
    -31.058  0.0000E+00  0.0000E+00  0.1400E+00  0.1400E+00
    -30.888  0.0000E+00  0.0000E+00  0.1400E+00  0.1400E+00
    -30.717  0.0000E+00  0.0000E+00  0.1400E+00  0.1400E+00
    -30.547  0.0000E+00  0.0000E+00  0.1400E+00  0.1400E+00
    -30.376  0.0000E+00  0.0000E+00  0.1400E+00  0.1400E+00
    -30.205  0.0000E+00  0.0000E+00  0.1400E+00  0.1400E+00
    -30.035  0.0000E+00  0.0000E+00  0.1400E+00  0.1400E+00
    -29.864  0.0000E+00  0.0000E+00  0.1400E+00  0.1400E+00
    -29.694  0.0000E+00  0.0000E+00  0.1400E+00  0.1400E+00
    -29.523  0.0000E+00  0.0000E+00  0.1400E+00  0.1400E+00
    -29.353  0.0000E+00  0.0000E+00  0.1400E+00  0.1400E+00
    -29.182  0.0000E+00  0.0000E+00  0.1400E+00  0.1400E+00
    -29.011  0.0000E+00  0.0000E+00  0.1400E+00  0.1400E+00
    -28.841  0.0000E+00  0.0000E+00  0.1400E+00  0.1400E+00
    -28.670  0.0000E+00  0.0000E+00  0.1400E+00  0.1400E+00
    -28.500  0.0000E+00  0.0000E+00  0.1400E+00  0.1400E+00
    -28.329  0.0000E+00  0.0000E+00  0.1400E+00  0.1400E+00
    -28.159  0.0000E+00  0.0000E+00  0.1400E+00  0.1400E+00
    -27.988  0.0000E+00  0.0000E+00  0.1400E+00  0.1400E+00
    -27.817  0.0000E+00  0.0000E+00  0.1400E+00  0.1400E+00
    -27.647  0.0000E+00  0.0000E+00  0.1400E+00  0.1400E+00
    -27.476  0.0000E+00  0.0000E+00  0.1400E+00  0.1400E+00
    -27.306  0.0000E+00  0.0000E+00  0.1400E+00  0.1400E+00
    -27.135  0.0000E+00  0.0000E+00  0.1400E+00  0.1400E+00
    -26.964  0.0000E+00  0.0000E+00  0.1400E+00  0.1400E+00
    -26.794  0.0000E+00  0.0000E+00  0.1400E+00  0.1400E+00
    -26.623  0.0000E+00  0.0000E+00  0.1400E+00  0.1400E+00
    -26.453  0.0000E+00  0.0000E+00  0.1400E+00  0.1400E+00
    -26.282  0.0000E+00  0.0000E+00  0.1400E+00  0.1400E+00
    -26.112  0.0000E+00  0.0000E+00  0.1400E+00  0.1400E+00
    -25.941  0.0000E+00  0.0000E+00  0.1400E+00  0.1400E+00
    -25.770  0.0000E+00  0.0000E+00  0.1400E+00  0.1400E+00
    -25.600  0.0000E+00  0.0000E+00  0.1400E+00  0.1400E+00
    -25.429  0.0000E+00  0.0000E+00  0.1400E+00  0.1400E+00
    -25.259  0.0000E+00  0.0000E+00  0.1400E+00  0.1400E+00
    -25.088  0.0000E+00  0.0000E+00  0.1400E+00  0.1400E+00
    -24.918  0.0000E+00  0.0000E+00  0.1400E+00  0.1400E+00
    -24.747  0.0000E+00  0.0000E+00  0.1400E+00  0.1400E+00
    -24.576  0.0000E+00  0.0000E+00  0.1400E+00  0.1400E+00
    -24.406  0.0000E+00  0.0000E+00  0.1400E+00  0.1400E+00
    -24.235  0.0000E+00  0.0000E+00  0.1400E+00  0.1400E+00
    -24.065  0.0000E+00  0.0000E+00  0.1400E+00  0.1400E+00
    -23.894  0.0000E+00  0.0000E+00  0.1400E+00  0.1400E+00
    -23.723  0.0000E+00  0.0000E+00  0.1400E+00  0.1400E+00
    -23.553  0.0000E+00  0.0000E+00  0.1400E+00  0.1400E+00
    -23.382  0.0000E+00  0.0000E+00  0.1400E+00  0.1400E+00
    -23.212  0.0000E+00  0.0000E+00  0.1400E+00  0.1400E+00
    -23.041  0.0000E+00  0.0000E+00  0.1400E+00  0.1400E+00
    -22.871  0.0000E+00  0.0000E+00  0.1400E+00  0.1400E+00
    -22.700  0.0000E+00  0.0000E+00  0.1400E+00  0.1400E+00
    -22.529  0.0000E+00  0.0000E+00  0.1400E+00  0.1400E+00
    -22.359  0.0000E+00  0.0000E+00  0.1400E+00  0.1400E+00
    -22.188  0.0000E+00  0.0000E+00  0.1400E+00  0.1400E+00
    -22.018  0.0000E+00  0.0000E+00  0.1400E+00  0.1400E+00
    -21.847  0.0000E+00  0.0000E+00  0.1400E+00  0.1400E+00
    -21.677  0.0000E+00  0.0000E+00  0.1400E+00  0.1400E+00
    -21.506  0.0000E+00  0.0000E+00  0.1400E+00  0.1400E+00
    -21.335  0.0000E+00  0.0000E+00  0.1400E+00  0.1400E+00
    -21.165  0.0000E+00  0.0000E+00  0.1400E+00  0.1400E+00
    -20.994  0.0000E+00  0.0000E+00  0.1400E+00  0.1400E+00
    -20.824  0.0000E+00  0.0000E+00  0.1400E+00  0.1400E+00
    -20.653  0.0000E+00  0.0000E+00  0.1400E+00  0.1400E+00
    -20.482  0.0000E+00  0.0000E+00  0.1400E+00  0.1400E+00
    -20.312  0.0000E+00  0.0000E+00  0.1400E+00  0.1400E+00
    -20.141  0.0000E+00  0.0000E+00  0.1400E+00  0.1400E+00
    -19.971  0.0000E+00  0.0000E+00  0.1400E+00  0.1400E+00
    -19.800  0.0000E+00  0.0000E+00  0.1400E+00  0.1400E+00
    -19.630  0.0000E+00  0.0000E+00  0.1400E+00  0.1400E+00
    -19.459  0.0000E+00  0.0000E+00  0.1400E+00  0.1400E+00
    -19.288  0.0000E+00  0.0000E+00  0.1400E+00  0.1400E+00
    -19.118  0.0000E+00  0.0000E+00  0.1400E+00  0.1400E+00
    -18.947  0.0000E+00  0.0000E+00  0.1400E+00  0.1400E+00
    -18.777  0.0000E+00  0.0000E+00  0.1400E+00  0.1400E+00
    -18.606  0.0000E+00  0.0000E+00  0.1400E+00  0.1400E+00
    -18.436  0.0000E+00  0.0000E+00  0.1400E+00  0.1400E+00
    -18.265  0.0000E+00  0.0000E+00  0.1400E+00  0.1400E+00
    -18.094  0.0000E+00  0.0000E+00  0.1400E+00  0.1400E+00
    -17.924  0.0000E+00  0.0000E+00  0.1400E+00  0.1400E+00
    -17.753  0.0000E+00  0.0000E+00  0.1400E+00  0.1400E+00
    -17.583  0.0000E+00  0.0000E+00  0.1400E+00  0.1400E+00
    -17.412  0.0000E+00  0.0000E+00  0.1400E+00  0.1400E+00
    -17.241  0.0000E+00  0.0000E+00  0.1400E+00  0.1400E+00
    -17.071  0.0000E+00  0.0000E+00  0.1400E+00  0.1400E+00
    -16.900  0.0000E+00  0.0000E+00  0.1400E+00  0.1400E+00
    -16.730 -0.2298E-34 -0.1055E-32  0.1400E+00  0.1400E+00
    -16.559 -0.2850E-26 -0.7793E-25  0.1400E+00  0.1400E+00
    -16.389 -0.2610E-19 -0.4267E-18  0.1400E+00  0.1400E+00
    -16.218 -0.1698E-13 -0.1661E-12  0.1400E+00  0.1400E+00
    -16.047 -0.8153E-09 -0.4787E-08  0.1400E+00  0.1400E+00
    -15.877 -0.2733E-05 -0.9573E-05  0.1400E+00  0.1400E+00
    -15.706 -0.5670E-03 -0.1120E-02  0.1399E+00  0.1398E+00
    -15.536 -0.1053E-02  0.4000E-02  0.1397E+00  0.1405E+00
    -15.365  0.6229E-01  0.7398E-01  0.1503E+00  0.1531E+00
    -15.195  0.4014E-01  0.2345E-01  0.1572E+00  0.1571E+00
    -15.024 -0.2915E-02 -0.2527E-02  0.1567E+00  0.1567E+00
    -14.853 -0.1898E-03 -0.6858E-04  0.1567E+00  0.1567E+00
    -14.683 -0.4647E-06 -0.9129E-07  0.1567E+00  0.1567E+00
    -14.512 -0.7685E-10 -0.8355E-11  0.1567E+00  0.1567E+00
    -14.342 -0.9199E-15 -0.5207E-16  0.1567E+00  0.1567E+00
    -14.171  0.0000E+00  0.0000E+00  0.1567E+00  0.1567E+00
    -14.000  0.0000E+00  0.0000E+00  0.1567E+00  0.1567E+00
    -13.830  0.0000E+00  0.0000E+00  0.1567E+00  0.1567E+00
    -13.659  0.0000E+00  0.0000E+00  0.1567E+00  0.1567E+00
    -13.489  0.0000E+00  0.0000E+00  0.1567E+00  0.1567E+00
    -13.318  0.0000E+00  0.0000E+00  0.1567E+00  0.1567E+00
    -13.148  0.0000E+00  0.0000E+00  0.1567E+00  0.1567E+00
    -12.977  0.0000E+00  0.0000E+00  0.1567E+00  0.1567E+00
    -12.806  0.0000E+00  0.0000E+00  0.1567E+00  0.1567E+00
    -12.636  0.0000E+00  0.0000E+00  0.1567E+00  0.1567E+00
    -12.465  0.0000E+00  0.0000E+00  0.1567E+00  0.1567E+00
    -12.295  0.0000E+00  0.0000E+00  0.1567E+00  0.1567E+00
    -12.124  0.0000E+00  0.0000E+00  0.1567E+00  0.1567E+00
    -11.953  0.0000E+00  0.0000E+00  0.1567E+00  0.1567E+00
    -11.783  0.0000E+00  0.0000E+00  0.1567E+00  0.1567E+00
    -11.612  0.0000E+00  0.0000E+00  0.1567E+00  0.1567E+00
    -11.442  0.0000E+00  0.0000E+00  0.1567E+00  0.1567E+00
    -11.271  0.0000E+00  0.0000E+00  0.1567E+00  0.1567E+00
    -11.101  0.0000E+00  0.0000E+00  0.1567E+00  0.1567E+00
    -10.930  0.0000E+00  0.0000E+00  0.1567E+00  0.1567E+00
    -10.759  0.0000E+00  0.0000E+00  0.1567E+00  0.1567E+00
    -10.589  0.0000E+00  0.0000E+00  0.1567E+00  0.1567E+00
    -10.418  0.0000E+00  0.0000E+00  0.1567E+00  0.1567E+00
    -10.248  0.0000E+00  0.0000E+00  0.1567E+00  0.1567E+00
    -10.077  0.0000E+00  0.0000E+00  0.1567E+00  0.1567E+00
     -9.907  0.0000E+00  0.0000E+00  0.1567E+00  0.1567E+00
     -9.736  0.0000E+00  0.0000E+00  0.1567E+00  0.1567E+00
     -9.565  0.0000E+00  0.0000E+00  0.1567E+00  0.1567E+00
     -9.395  0.0000E+00  0.0000E+00  0.1567E+00  0.1567E+00
     -9.224  0.0000E+00  0.0000E+00  0.1567E+00  0.1567E+00
     -9.054  0.0000E+00  0.0000E+00  0.1567E+00  0.1567E+00
     -8.883 -0.6941E-36 -0.3712E-33  0.1567E+00  0.1567E+00
     -8.712 -0.9530E-28 -0.2471E-25  0.1567E+00  0.1567E+00
     -8.542 -0.1002E-20 -0.1247E-18  0.1567E+00  0.1567E+00
     -8.371 -0.7891E-15 -0.4565E-13  0.1567E+00  0.1567E+00
     -8.201 -0.4864E-10 -0.1257E-08  0.1567E+00  0.1567E+00
     -8.030 -0.2229E-06 -0.2408E-05  0.1567E+00  0.1567E+00
     -7.860 -0.6793E-04 -0.2627E-03  0.1567E+00  0.1566E+00
     -7.689 -0.5284E-03  0.1170E-02  0.1566E+00  0.1568E+00
     -7.518  0.1069E-01  0.1545E-01  0.1584E+00  0.1595E+00
     -7.348  0.1005E-01  0.3645E-02  0.1601E+00  0.1601E+00
     -7.177 -0.5754E-03 -0.5380E-03  0.1600E+00  0.1600E+00
     -7.007  0.2687E-02  0.7072E-03  0.1605E+00  0.1601E+00
     -6.836  0.6256E-02  0.4861E-02  0.1615E+00  0.1609E+00
     -6.666  0.2620E-02  0.5009E-02  0.1620E+00  0.1618E+00
     -6.495  0.7157E-02  0.2702E-02  0.1632E+00  0.1623E+00
     -6.324  0.6899E-02  0.9142E-02  0.1644E+00  0.1638E+00
     -6.154  0.8486E-03  0.3367E-02  0.1645E+00  0.1644E+00
     -5.983  0.1015E-01  0.2031E-02  0.1663E+00  0.1647E+00
     -5.813  0.1405E-01  0.1131E-01  0.1686E+00  0.1667E+00
     -5.642  0.9659E-02  0.1432E-01  0.1703E+00  0.1691E+00
     -5.471  0.1256E-01  0.6685E-02  0.1724E+00  0.1702E+00
     -5.301  0.7577E-02  0.1487E-01  0.1737E+00  0.1728E+00
     -5.130  0.1004E-01  0.5818E-02  0.1754E+00  0.1738E+00
     -4.960  0.2120E-01  0.8059E-02  0.1791E+00  0.1751E+00
     -4.789  0.1253E-01  0.2128E-01  0.1812E+00  0.1788E+00
     -4.619  0.1921E-01  0.1123E-01  0.1845E+00  0.1807E+00
     -4.448  0.1951E-01  0.1486E-01  0.1878E+00  0.1832E+00
     -4.277  0.2810E-01  0.1374E-01  0.1926E+00  0.1856E+00
     -4.107  0.2932E-01  0.1822E-01  0.1976E+00  0.1887E+00
     -3.936  0.5043E-01  0.3068E-01  0.2062E+00  0.1939E+00
     -3.766  0.6434E-01  0.2082E-01  0.2172E+00  0.1975E+00
     -3.595  0.9973E-01  0.2696E-01  0.2342E+00  0.2021E+00
     -3.425  0.1227E+00  0.1993E-01  0.2551E+00  0.2055E+00
     -3.254  0.1283E+00  0.3730E-01  0.2770E+00  0.2118E+00
     -3.083  0.1851E+00  0.4913E-01  0.3086E+00  0.2202E+00
     -2.913  0.1667E+00  0.6302E-01  0.3370E+00  0.2310E+00
     -2.742  0.1360E+00  0.7305E-01  0.3602E+00  0.2434E+00
     -2.572  0.1733E+00  0.6738E-01  0.3898E+00  0.2549E+00
     -2.401  0.2424E+00  0.7045E-01  0.4311E+00  0.2669E+00
     -2.230  0.2551E+00  0.9627E-01  0.4746E+00  0.2834E+00
     -2.060  0.2226E+00  0.1065E+00  0.5126E+00  0.3015E+00
     -1.889  0.2250E+00  0.1057E+00  0.5510E+00  0.3195E+00
     -1.719  0.2274E+00  0.1172E+00  0.5898E+00  0.3395E+00
     -1.548  0.2312E+00  0.1114E+00  0.6292E+00  0.3585E+00
     -1.378  0.2337E+00  0.1401E+00  0.6691E+00  0.3824E+00
     -1.207  0.2143E+00  0.1679E+00  0.7056E+00  0.4111E+00
     -1.036  0.1714E+00  0.1662E+00  0.7349E+00  0.4394E+00
     -0.866  0.1583E+00  0.1683E+00  0.7619E+00  0.4681E+00
     -0.695  0.1802E+00  0.1729E+00  0.7926E+00  0.4976E+00
     -0.525  0.2126E+00  0.1959E+00  0.8289E+00  0.5311E+00
     -0.354  0.2731E+00  0.2204E+00  0.8755E+00  0.5687E+00
     -0.184  0.3173E+00  0.2211E+00  0.9296E+00  0.6064E+00
     -0.013  0.2781E+00  0.2111E+00  0.9770E+00  0.6424E+00
      0.158  0.2162E+00  0.1733E+00  0.1014E+01  0.6720E+00
      0.328  0.1725E+00  0.1362E+00  0.1043E+01  0.6952E+00
      0.499  0.1573E+00  0.1215E+00  0.1070E+01  0.7159E+00
      0.669  0.1422E+00  0.1051E+00  0.1094E+01  0.7338E+00
      0.840  0.1334E+00  0.9000E-01  0.1117E+01  0.7492E+00
      1.011  0.1042E+00  0.1124E+00  0.1135E+01  0.7684E+00
      1.181  0.9097E-01  0.1385E+00  0.1150E+01  0.7920E+00
      1.352  0.1050E+00  0.1702E+00  0.1168E+01  0.8210E+00
      1.522  0.1253E+00  0.1878E+00  0.1190E+01  0.8531E+00
      1.693  0.1232E+00  0.2084E+00  0.1211E+01  0.8886E+00
      1.863  0.1268E+00  0.2352E+00  0.1232E+01  0.9287E+00
      2.034  0.1082E+00  0.2294E+00  0.1251E+01  0.9679E+00
      2.205  0.1692E-01  0.2600E+00  0.1254E+01  0.1012E+01
      2.375 -0.2327E-02  0.2964E+00  0.1253E+01  0.1063E+01
      2.546 -0.7219E-04  0.3227E+00  0.1253E+01  0.1118E+01
      2.716 -0.1410E-06  0.3103E+00  0.1253E+01  0.1171E+01
      2.887 -0.2221E-10  0.2228E+00  0.1253E+01  0.1209E+01
      3.057 -0.2856E-15  0.1489E+00  0.1253E+01  0.1234E+01
      3.228  0.0000E+00  0.9681E-01  0.1253E+01  0.1251E+01
      3.399  0.0000E+00  0.1766E-01  0.1253E+01  0.1254E+01
      3.569  0.0000E+00 -0.2128E-02  0.1253E+01  0.1253E+01
      3.740  0.0000E+00 -0.9081E-04  0.1253E+01  0.1253E+01
      3.910  0.0000E+00 -0.2631E-06  0.1253E+01  0.1253E+01
      4.081  0.0000E+00 -0.7139E-10  0.1253E+01  0.1253E+01
      4.252  0.0000E+00 -0.1711E-14  0.1253E+01  0.1253E+01
      4.422  0.0000E+00  0.0000E+00  0.1253E+01  0.1253E+01
      4.593  0.0000E+00  0.0000E+00  0.1253E+01  0.1253E+01
      4.763  0.0000E+00  0.0000E+00  0.1253E+01  0.1253E+01
      4.934  0.0000E+00  0.0000E+00  0.1253E+01  0.1253E+01
      5.104  0.0000E+00  0.0000E+00  0.1253E+01  0.1253E+01
      5.275  0.0000E+00  0.0000E+00  0.1253E+01  0.1253E+01
      5.446  0.0000E+00  0.0000E+00  0.1253E+01  0.1253E+01
      5.616  0.0000E+00  0.0000E+00  0.1253E+01  0.1253E+01
