   64   64  300    2
  0.2672958E+02  0.8532700E-09  0.8497000E-09  0.2359500E-08  0.5000000E-15
  1.000000000000000E-004
  CAR 
 ni3al                                   
    574     10    376
 
  0.0000000E+00  0.0000000E+00  0.0000000E+00  0.6250000E-01
      1        -42.730728      -43.231497   1.000000   1.000000
      2        -42.711353      -43.222401   1.000000   1.000000
      3        -42.699626      -43.198627   1.000000   1.000000
      4        -42.692325      -43.159303   1.000000   1.000000
      5        -42.664711      -43.156667   1.000000   1.000000
      6        -42.653540      -43.128547   1.000000   1.000000
      7        -42.650540      -43.128315   1.000000   1.000000
      8        -42.627920      -43.118005   1.000000   1.000000
      9        -42.625148      -43.089565   1.000000   1.000000
     10        -42.614610      -43.083056   1.000000   1.000000
     11        -42.607611      -43.080359   1.000000   1.000000
     12        -42.599879      -43.075090   1.000000   1.000000
     13        -42.214858      -43.067678   1.000000   1.000000
     14        -42.131298      -43.062117   1.000000   1.000000
     15        -42.073276      -43.055719   1.000000   1.000000
     16        -41.901695      -43.051880   1.000000   1.000000
     17        -41.895690      -43.023305   1.000000   1.000000
     18        -41.883052      -43.020823   1.000000   1.000000
     19        -41.866450      -43.019801   1.000000   1.000000
     20        -41.817253      -42.992926   1.000000   1.000000
     21        -41.793892      -42.975202   1.000000   1.000000
     22        -41.777428      -42.781446   1.000000   1.000000
     23        -41.757117      -42.748443   1.000000   1.000000
     24        -41.756178      -42.697168   1.000000   1.000000
     25        -41.731143      -42.662170   1.000000   1.000000
     26        -41.717705      -42.603665   1.000000   1.000000
     27        -41.712128      -42.565558   1.000000   1.000000
     28        -41.706023      -41.626084   1.000000   1.000000
     29        -41.690035      -41.509739   1.000000   1.000000
     30        -41.683030      -41.505076   1.000000   1.000000
     31        -41.665720      -40.374350   1.000000   1.000000
     32        -41.653975      -40.364750   1.000000   1.000000
     33        -41.644676      -40.059854   1.000000   1.000000
     34        -41.620514      -39.939690   1.000000   1.000000
     35        -41.618408      -39.837645   1.000000   1.000000
     36        -41.600445      -39.833844   1.000000   1.000000
     37        -40.222835      -39.707560   1.000000   1.000000
     38        -40.199712      -39.652242   1.000000   1.000000
     39        -40.120984      -39.542677   1.000000   1.000000
     40        -40.120390      -39.369651   1.000000   1.000000
     41        -40.100352      -39.362150   1.000000   1.000000
     42        -40.018340      -39.282789   1.000000   1.000000
     43        -15.408118      -15.443810   1.000000   1.000000
     44        -15.406375      -15.438894   1.000000   1.000000
     45        -15.404073      -15.432101   1.000000   1.000000
     46        -15.363999      -15.398883   1.000000   1.000000
     47        -15.355017      -15.393774   1.000000   1.000000
     48         -7.560682       -7.611428   1.000000   1.000000
     49         -7.102253       -7.016509   1.000000   1.000000
     50         -6.114527       -5.964997   1.000000   1.000000
     51         -5.215824       -5.017126   1.000000   1.000000
     52         -5.146869       -4.993124   1.000000   1.000000
     53         -5.134376       -4.975461   1.000000   1.000000
     54         -5.105432       -4.947654   1.000000   1.000000
     55         -4.822195       -4.552177   1.000000   1.000000
     56         -4.575960       -4.260366   1.000000   1.000000
     57         -4.529853       -4.238872   1.000000   1.000000
     58         -4.490004       -4.176458   1.000000   1.000000
     59         -4.461052       -4.109054   1.000000   1.000000
     60         -4.057462       -3.620875   1.000000   1.000000
     61         -4.037081       -3.607926   1.000000   1.000000
     62         -4.028577       -3.565824   1.000000   1.000000
     63         -4.009985       -3.506871   1.000000   1.000000
     64         -3.998789       -3.466373   1.000000   1.000000
     65         -3.969254       -3.445697   1.000000   1.000000
     66         -3.958751       -3.344695   1.000000   1.000000
     67         -3.928703       -3.296203   1.000000   1.000000
     68         -3.786966       -3.157899   1.000000   1.000000
     69         -3.760328       -2.841685   1.000000   1.000000
     70         -3.618205       -2.823127   1.000000   1.000000
     71         -3.576120       -2.787113   1.000000   1.000000
     72         -3.556827       -2.761884   1.000000   1.000000
     73         -3.525097       -2.743904   1.000000   1.000000
     74         -3.491520       -2.713311   1.000000   1.000000
     75         -3.401794       -2.671675   1.000000   1.000000
     76         -3.369605       -2.597097   1.000000   1.000000
     77         -3.344411       -2.573389   1.000000   1.000000
     78         -3.327855       -2.501613   1.000000   1.000000
     79         -3.308721       -2.334165   1.000000   1.000000
     80         -3.295700       -2.326064   1.000000   1.000000
     81         -3.276810       -2.285485   1.000000   1.000000
     82         -3.266457       -2.280436   1.000000   1.000000
     83         -3.249476       -2.257121   1.000000   1.000000
     84         -3.243888       -2.220788   1.000000   1.000000
     85         -3.211484       -2.182648   1.000000   1.000000
     86         -3.199424       -2.171109   1.000000   1.000000
     87         -3.184083       -2.157781   1.000000   1.000000
     88         -3.179177       -2.131977   1.000000   1.000000
     89         -3.158726       -2.078720   1.000000   1.000000
     90         -3.156008       -2.054583   1.000000   1.000000
     91         -3.144752       -2.031209   1.000000   1.000000
     92         -3.141975       -1.999178   1.000000   1.000000
     93         -3.085094       -1.974432   1.000000   1.000000
     94         -3.074995       -1.952313   1.000000   1.000000
     95         -3.056988       -1.944061   1.000000   1.000000
     96         -2.953753       -1.896968   1.000000   1.000000
     97         -2.907189       -1.881984   1.000000   1.000000
     98         -2.898840       -1.812926   1.000000   1.000000
     99         -2.880364       -1.742188   1.000000   1.000000
    100         -2.856007       -1.729157   1.000000   1.000000
    101         -2.842430       -1.692339   1.000000   1.000000
    102         -2.828214       -1.684248   1.000000   1.000000
    103         -2.806019       -1.669628   1.000000   1.000000
    104         -2.787187       -1.617522   1.000000   1.000000
    105         -2.779250       -1.575463   1.000000   1.000000
    106         -2.764283       -1.555164   1.000000   1.000000
    107         -2.744705       -1.528763   1.000000   1.000000
    108         -2.739588       -1.502395   1.000000   1.000000
    109         -2.724832       -1.478348   1.000000   1.000000
    110         -2.697062       -1.454599   1.000000   1.000000
    111         -2.647168       -1.450328   1.000000   1.000000
    112         -2.636050       -1.429131   1.000000   1.000000
    113         -2.579853       -1.399508   1.000000   1.000000
    114         -2.551595       -1.389150   1.000000   1.000000
    115         -2.505808       -1.367317   1.000000   1.000000
    116         -2.503199       -1.354399   1.000000   1.000000
    117         -2.490663       -1.325707   1.000000   1.000000
    118         -2.469783       -1.290565   1.000000   1.000000
    119         -2.463684       -1.275266   1.000000   1.000000
    120         -2.448455       -1.267042   1.000000   1.000000
    121         -2.437930       -1.244248   1.000000   1.000000
    122         -2.428164       -1.225194   1.000000   1.000000
    123         -2.423917       -1.213221   1.000000   1.000000
    124         -2.399494       -1.191915   1.000000   1.000000
    125         -2.395363       -1.154043   1.000000   1.000000
    126         -2.391300       -1.148565   1.000000   1.000000
    127         -2.388394       -1.120610   1.000000   1.000000
    128         -2.371492       -1.091291   1.000000   1.000000
    129         -2.367427       -1.087108   1.000000   1.000000
    130         -2.352512       -1.063402   1.000000   1.000000
    131         -2.347187       -1.048397   1.000000   1.000000
    132         -2.334996       -1.033523   1.000000   1.000000
    133         -2.323360       -1.007972   1.000000   1.000000
    134         -2.306288       -0.995247   1.000000   1.000000
    135         -2.302017       -0.975872   1.000000   1.000000
    136         -2.288318       -0.961485   1.000000   1.000000
    137         -2.285611       -0.938841   1.000000   1.000000
    138         -2.275584       -0.930559   1.000000   1.000000
    139         -2.270708       -0.907545   1.000000   1.000000
    140         -2.249321       -0.895567   1.000000   1.000000
    141         -2.238500       -0.884974   1.000000   1.000000
    142         -2.230524       -0.864499   1.000000   1.000000
    143         -2.211516       -0.843009   1.000000   1.000000
    144         -2.203716       -0.835249   1.000000   1.000000
    145         -2.201363       -0.824556   1.000000   1.000000
    146         -2.177993       -0.807844   1.000000   1.000000
    147         -2.166572       -0.780592   1.000000   1.000000
    148         -2.156880       -0.770629   1.000000   1.000000
    149         -2.153685       -0.755158   1.000000   1.000000
    150         -2.124740       -0.735617   1.000000   1.000000
    151         -2.112188       -0.718658   1.000000   1.000000
    152         -2.102193       -0.700487   1.000000   1.000000
    153         -2.088064       -0.681228   1.000000   1.000000
    154         -2.086084       -0.674090   1.000000   1.000000
    155         -2.054739       -0.658359   1.000000   1.000000
    156         -2.044030       -0.645390   1.000000   1.000000
    157         -2.030122       -0.622685   1.000000   1.000000
    158         -2.016730       -0.602789   1.000000   1.000000
    159         -2.012935       -0.590171   1.000000   1.000000
    160         -1.989564       -0.554174   1.000000   1.000000
    161         -1.985788       -0.552880   1.000000   1.000000
    162         -1.967226       -0.540184   1.000000   1.000000
    163         -1.948317       -0.504057   1.000000   1.000000
    164         -1.938825       -0.495698   1.000000   1.000000
    165         -1.934848       -0.483866   1.000000   1.000000
    166         -1.914029       -0.473959   1.000000   1.000000
    167         -1.887545       -0.455531   1.000000   1.000000
    168         -1.878359       -0.435891   1.000000   1.000000
    169         -1.862627       -0.424972   1.000000   1.000000
    170         -1.845567       -0.400992   1.000000   1.000000
    171         -1.839932       -0.398179   1.000000   1.000000
    172         -1.819734       -0.363257   1.000000   1.000000
    173         -1.804065       -0.350609   1.000000   1.000000
    174         -1.800734       -0.331309   1.000000   1.000000
    175         -1.770617       -0.298256   1.000000   1.000000
    176         -1.765902       -0.273319   1.000000   1.000000
    177         -1.753931       -0.251951   1.000000   1.000000
    178         -1.743164       -0.239055   1.000000   1.000000
    179         -1.723798       -0.212522   1.000000   1.000000
    180         -1.709810       -0.203615   1.000000   1.000000
    181         -1.705587       -0.190016   1.000000   1.000000
    182         -1.691956       -0.179045   1.000000   1.000000
    183         -1.683850       -0.162630   1.000000   1.000000
    184         -1.662883       -0.156098   1.000000   1.000000
    185         -1.653342       -0.137320   1.000000   1.000000
    186         -1.630225       -0.135003   1.000000   1.000000
    187         -1.608049       -0.119084   1.000000   1.000000
    188         -1.590919       -0.106644   1.000000   1.000000
    189         -1.585053       -0.083270   1.000000   1.000000
    190         -1.551303       -0.075209   1.000000   1.000000
    191         -1.544784       -0.044496   1.000000   1.000000
    192         -1.532683       -0.020346   1.000000   1.000000
    193         -1.521046        0.001177   1.000000   1.000000
    194         -1.483952        0.025289   1.000000   1.000000
    195         -1.465742        0.034033   1.000000   1.000000
    196         -1.440365        0.094574   1.000000   1.000000
    197         -1.430724        0.102677   1.000000   1.000000
    198         -1.409184        0.134488   1.000000   1.000000
    199         -1.377187        0.156769   1.000000   1.000000
    200         -1.360481        0.197902   1.000000   1.000000
    201         -1.351390        0.218626   1.000000   1.000000
    202         -1.333426        0.232923   1.000000   1.000000
    203         -1.312123        0.252214   1.000000   1.000000
    204         -1.302586        0.277646   1.000000   1.000000
    205         -1.291594        0.300118   1.000000   1.000000
    206         -1.281464        0.323639   1.000000   1.000000
    207         -1.270443        0.331768   1.000000   1.000000
    208         -1.247104        0.357258   1.000000   1.000000
    209         -1.228031        0.385516   1.000000   1.000000
    210         -1.216383        0.402328   1.000000   1.000000
    211         -1.201658        0.433797   1.000000   1.000000
    212         -1.187186        0.444297   1.000000   1.000000
    213         -1.171147        0.449490   1.000000   1.000000
    214         -1.153795        0.463817   1.000000   1.000000
    215         -1.142868        0.490069   1.000000   1.000001
    216         -1.076920        0.501566   1.000000   1.000001
    217         -1.070885        0.522745   1.000000   1.000003
    218         -1.058561        0.591061   1.000000   1.000053
    219         -1.045435        0.618494   1.000000   1.000148
    220         -1.034486        0.627383   1.000000   1.000203
    221         -1.023624        0.662751   1.000000   1.000663
    222         -1.004342        0.704406   1.000000   1.002265
    223         -1.001050        0.724056   1.000000   1.003794
    224         -0.976791        0.725507   1.000000   1.003935
    225         -0.959056        0.782079   1.000000   1.013467
    226         -0.943592        0.792751   1.000000   1.016242
    227         -0.929504        0.816875   1.000000   1.023361
    228         -0.917775        0.836824   1.000000   1.029367
    229         -0.901918        0.848416   1.000000   1.032364
    230         -0.863939        0.855894   1.000000   1.033893
    231         -0.851643        0.887467   1.000000   1.033633
    232         -0.828828        0.912454   1.000000   1.019993
    233         -0.805705        0.955437   1.000000   0.948910
    234         -0.792670        1.082382   1.000000   0.353232
    235         -0.777168        1.129436   1.000000   0.135373
    236         -0.752625        1.146597   1.000000   0.077961
    237         -0.739704        1.160642   1.000000   0.040768
    238         -0.723072        1.170857   1.000000   0.019091
    239         -0.712377        1.195051   1.000000  -0.015886
    240         -0.682661        1.210889   1.000000  -0.028234
    241         -0.673273        1.230616   1.000000  -0.034855
    242         -0.655065        1.262501   1.000000  -0.032572
    243         -0.643845        1.281174   1.000000  -0.027575
    244         -0.616355        1.296650   1.000000  -0.022840
    245         -0.604195        1.306220   1.000000  -0.019931
    246         -0.597698        1.315706   1.000000  -0.017178
    247         -0.593349        1.332793   1.000000  -0.012732
    248         -0.574265        1.348381   1.000000  -0.009372
    249         -0.554983        1.355492   1.000000  -0.008068
    250         -0.545775        1.358688   1.000000  -0.007528
    251         -0.533513        1.375082   1.000000  -0.005178
    252         -0.520978        1.400928   1.000000  -0.002699
    253         -0.514351        1.408543   1.000000  -0.002197
    254         -0.493202        1.443202   1.000000  -0.000797
    255         -0.467965        1.445937   1.000000  -0.000732
    256         -0.448949        1.453948   1.000000  -0.000567
    257         -0.436980        1.478322   1.000000  -0.000252
    258         -0.432175        1.503709   1.000000  -0.000101
    259         -0.421172        1.509327   1.000000  -0.000082
    260         -0.403165        1.534602   1.000000  -0.000031
    261         -0.393393        1.544188   1.000000  -0.000021
    262         -0.387376        1.560618   1.000000  -0.000011
    263         -0.371267        1.581656   1.000000  -0.000004
    264         -0.364249        1.592238   1.000000  -0.000003
    265         -0.351791        1.605731   1.000000  -0.000001
    266         -0.331226        1.625961   1.000000  -0.000001
    267         -0.330032        1.642043   1.000000  -0.000000
    268         -0.317726        1.648295   1.000000  -0.000000
    269         -0.311035        1.678601   1.000000  -0.000000
    270         -0.307669        1.691751   1.000000  -0.000000
    271         -0.297552        1.715353   1.000000  -0.000000
    272         -0.296466        1.718873   1.000000  -0.000000
    273         -0.288374        1.728976   1.000000  -0.000000
    274         -0.264713        1.759162   1.000000  -0.000000
    275         -0.253744        1.765884   1.000000  -0.000000
    276         -0.240315        1.776888   1.000000  -0.000000
    277         -0.233374        1.786771   1.000000  -0.000000
    278         -0.219553        1.799577   1.000000  -0.000000
    279         -0.213014        1.825285   1.000000  -0.000000
    280         -0.199454        1.836888   1.000000  -0.000000
    281         -0.192018        1.848163   1.000000  -0.000000
    282         -0.187946        1.867504   1.000000  -0.000000
    283         -0.183815        1.878145   1.000000  -0.000000
    284         -0.173667        1.913609   1.000000  -0.000000
    285         -0.164615        1.921664   1.000000  -0.000000
    286         -0.156922        1.942918   1.000000  -0.000000
    287         -0.140059        1.947305   1.000000  -0.000000
    288         -0.129147        1.961565   1.000000  -0.000000
    289         -0.118080        2.008876   1.000000  -0.000000
    290         -0.108017        2.021861   1.000000  -0.000000
    291         -0.088542        2.031438   1.000000  -0.000000
    292         -0.083155        2.037442   1.000000  -0.000000
    293         -0.064840        2.056715   1.000000  -0.000000
    294         -0.054870        2.068991   1.000000  -0.000000
    295         -0.036577        2.075804   1.000000  -0.000000
    296         -0.026797        2.091039   1.000000  -0.000000
    297         -0.010958        2.113944   1.000000  -0.000000
    298          0.000457        2.123791   1.000000  -0.000000
    299          0.007146        2.136696   1.000000  -0.000000
    300          0.014651        2.141740   1.000000  -0.000000
    301          0.017530        2.169132   1.000000  -0.000000
    302          0.037227        2.183347   1.000000  -0.000000
    303          0.067908        2.186326   1.000000  -0.000000
    304          0.082996        2.213439   1.000000  -0.000000
    305          0.097854        2.218580   1.000000  -0.000000
    306          0.159885        2.223051   1.000000  -0.000000
    307          0.185761        2.242442   1.000000  -0.000000
    308          0.193812        2.249459   1.000000  -0.000000
    309          0.218851        2.265534   1.000000  -0.000000
    310          0.237912        2.277007   1.000000  -0.000000
    311          0.254067        2.291020   1.000000  -0.000000
    312          0.277972        2.295945   1.000000  -0.000000
    313          0.296536        2.299377   1.000000  -0.000000
    314          0.303275        2.317503   1.000000  -0.000000
    315          0.316964        2.323476   1.000000  -0.000000
    316          0.320696        2.334303   1.000000  -0.000000
    317          0.357106        2.341717   1.000000  -0.000000
    318          0.383074        2.346420   1.000000  -0.000000
    319          0.405610        2.358864   1.000000  -0.000000
    320          0.443770        2.364967   1.000000  -0.000000
    321          0.450789        2.378513   1.000000  -0.000000
    322          0.464856        2.389192   1.000000  -0.000000
    323          0.487014        2.394889   1.000001  -0.000000
    324          0.507468        2.406694   1.000001  -0.000000
    325          0.522708        2.411505   1.000003  -0.000000
    326          0.546326        2.413722   1.000009  -0.000000
    327          0.602987        2.447896   1.000084  -0.000000
    328          0.629964        2.458312   1.000223  -0.000000
    329          0.638045        2.470555   1.000294  -0.000000
    330          0.661864        2.476314   1.000644  -0.000000
    331          0.684379        2.488246   1.001283  -0.000000
    332          0.714233        2.494484   1.002947  -0.000000
    333          0.741845        2.502381   1.005836  -0.000000
    334          0.750808        2.516651   1.007150  -0.000000
    335          0.783376        2.523609   1.013789  -0.000000
    336          0.792003        2.528711   1.016039  -0.000000
    337          0.809200        2.543725   1.021010  -0.000000
    338          0.828144        2.546269   1.026820  -0.000000
    339          0.861475        2.558541   1.034744  -0.000000
    340          0.895383        2.564711   1.030964  -0.000000
    341          0.910539        2.575853   1.021627  -0.000000
    342          0.986760        2.584190   0.847959  -0.000000
    343          1.012833        2.616768   0.732308  -0.000000
    344          1.049957        2.620114   0.533597  -0.000000
    345          1.117817        2.633588   0.181559  -0.000000
    346          1.143342        2.649083   0.087836  -0.000000
    347          1.230226        2.651378  -0.034799  -0.000000
    348          1.240875        2.666544  -0.035447  -0.000000
    349          1.305377        2.684671  -0.020183  -0.000000
    350          1.319215        2.692583  -0.016206  -0.000000
    351          1.328380        2.711249  -0.013808  -0.000000
    352          1.390067        2.716565  -0.003581  -0.000000
    353          1.415186        2.737192  -0.001826  -0.000000
    354          1.472446        2.756223  -0.000308  -0.000000
    355          1.495908        2.767765  -0.000135  -0.000000
    356          1.517970        2.784021  -0.000059  -0.000000
    357          1.528902        2.805516  -0.000039  -0.000000
    358          1.550930        2.814080  -0.000016  -0.000000
    359          1.569746        2.828992  -0.000007  -0.000000
    360          1.587627        2.836086  -0.000003  -0.000000
    361          1.626724        2.864977  -0.000001  -0.000000
    362          1.647830        2.899391  -0.000000  -0.000000
    363          1.664816        2.924233  -0.000000  -0.000000
    364          1.693232        2.929085  -0.000000  -0.000000
    365          1.703308        2.955323  -0.000000  -0.000000
    366          1.718717        2.984007  -0.000000  -0.000000
    367          1.757589        3.020899  -0.000000  -0.000000
    368          1.799783        3.029194  -0.000000  -0.000000
    369          1.824744        3.064518  -0.000000  -0.000000
    370          1.842732        3.080407  -0.000000  -0.000000
    371          1.883781        3.102984  -0.000000  -0.000000
    372          1.907624        3.137438  -0.000000  -0.000000
    373          1.926410        3.144881  -0.000000  -0.000000
    374          1.979209        3.171769  -0.000000  -0.000000
    375          1.997189        3.183215  -0.000000  -0.000000
    376          2.029478        3.202117  -0.000000  -0.000000
 
  0.2500000E+00  0.6721729E-20  0.0000000E+00  0.1250000E+00
      1        -42.730722      -43.231502   1.000000   1.000000
      2        -42.711356      -43.222406   1.000000   1.000000
      3        -42.699630      -43.198626   1.000000   1.000000
      4        -42.692321      -43.159301   1.000000   1.000000
      5        -42.664712      -43.156672   1.000000   1.000000
      6        -42.653545      -43.128564   1.000000   1.000000
      7        -42.650548      -43.128307   1.000000   1.000000
      8        -42.627942      -43.118009   1.000000   1.000000
      9        -42.625162      -43.089565   1.000000   1.000000
     10        -42.614609      -43.083052   1.000000   1.000000
     11        -42.607613      -43.080365   1.000000   1.000000
     12        -42.599882      -43.075098   1.000000   1.000000
     13        -42.214865      -43.067666   1.000000   1.000000
     14        -42.131294      -43.062117   1.000000   1.000000
     15        -42.073292      -43.055752   1.000000   1.000000
     16        -41.901712      -43.051866   1.000000   1.000000
     17        -41.895675      -43.023313   1.000000   1.000000
     18        -41.883053      -43.020826   1.000000   1.000000
     19        -41.866448      -43.019802   1.000000   1.000000
     20        -41.817260      -42.992925   1.000000   1.000000
     21        -41.793907      -42.975235   1.000000   1.000000
     22        -41.777425      -42.781451   1.000000   1.000000
     23        -41.757014      -42.748448   1.000000   1.000000
     24        -41.756268      -42.697174   1.000000   1.000000
     25        -41.731146      -42.662173   1.000000   1.000000
     26        -41.717713      -42.603678   1.000000   1.000000
     27        -41.712123      -42.565557   1.000000   1.000000
     28        -41.706028      -41.626087   1.000000   1.000000
     29        -41.690038      -41.509744   1.000000   1.000000
     30        -41.683035      -41.505078   1.000000   1.000000
     31        -41.665732      -40.374348   1.000000   1.000000
     32        -41.653995      -40.364753   1.000000   1.000000
     33        -41.644682      -40.059859   1.000000   1.000000
     34        -41.620529      -39.939707   1.000000   1.000000
     35        -41.618412      -39.837644   1.000000   1.000000
     36        -41.600446      -39.833841   1.000000   1.000000
     37        -40.222843      -39.707571   1.000000   1.000000
     38        -40.199711      -39.652248   1.000000   1.000000
     39        -40.120990      -39.542682   1.000000   1.000000
     40        -40.120388      -39.369651   1.000000   1.000000
     41        -40.100366      -39.362161   1.000000   1.000000
     42        -40.018347      -39.282795   1.000000   1.000000
     43        -15.408120      -15.443811   1.000000   1.000000
     44        -15.406374      -15.438896   1.000000   1.000000
     45        -15.404075      -15.432102   1.000000   1.000000
     46        -15.363999      -15.398883   1.000000   1.000000
     47        -15.355017      -15.393773   1.000000   1.000000
     48         -7.537618       -7.596632   1.000000   1.000000
     49         -6.979800       -6.886573   1.000000   1.000000
     50         -6.008494       -5.867477   1.000000   1.000000
     51         -5.950785       -5.812957   1.000000   1.000000
     52         -5.155899       -4.936272   1.000000   1.000000
     53         -5.051761       -4.877266   1.000000   1.000000
     54         -4.983589       -4.821922   1.000000   1.000000
     55         -4.724307       -4.450779   1.000000   1.000000
     56         -4.455587       -4.135729   1.000000   1.000000
     57         -4.393830       -4.100525   1.000000   1.000000
     58         -4.381398       -4.070833   1.000000   1.000000
     59         -4.304396       -4.038097   1.000000   1.000000
     60         -4.279399       -3.995857   1.000000   1.000000
     61         -4.177957       -3.769990   1.000000   1.000000
     62         -4.038659       -3.511103   1.000000   1.000000
     63         -3.950242       -3.361417   1.000000   1.000000
     64         -3.896201       -3.298983   1.000000   1.000000
     65         -3.868661       -3.230204   1.000000   1.000000
     66         -3.799189       -3.209060   1.000000   1.000000
     67         -3.765265       -3.180554   1.000000   1.000000
     68         -3.725364       -3.158878   1.000000   1.000000
     69         -3.699500       -3.097410   1.000000   1.000000
     70         -3.665332       -3.031761   1.000000   1.000000
     71         -3.639739       -2.833194   1.000000   1.000000
     72         -3.573647       -2.768551   1.000000   1.000000
     73         -3.530035       -2.723182   1.000000   1.000000
     74         -3.482486       -2.703226   1.000000   1.000000
     75         -3.461833       -2.572979   1.000000   1.000000
     76         -3.452234       -2.547288   1.000000   1.000000
     77         -3.432858       -2.518864   1.000000   1.000000
     78         -3.403264       -2.495727   1.000000   1.000000
     79         -3.378302       -2.445634   1.000000   1.000000
     80         -3.372965       -2.418096   1.000000   1.000000
     81         -3.330946       -2.400631   1.000000   1.000000
     82         -3.284174       -2.353849   1.000000   1.000000
     83         -3.248005       -2.291442   1.000000   1.000000
     84         -3.203941       -2.241696   1.000000   1.000000
     85         -3.194111       -2.208222   1.000000   1.000000
     86         -3.159977       -2.186144   1.000000   1.000000
     87         -3.150900       -2.158064   1.000000   1.000000