       N       E                     dE             d eps       ncg     rms          rms(c)
DAV:   1     0.571351729712E+04    0.57135E+04   -0.24514E+05 15984   0.145E+03
DAV:   2    -0.584691967616E+02   -0.57720E+04   -0.55710E+04 15040   0.425E+02
DAV:   3    -0.530247425283E+03   -0.47178E+03   -0.41935E+03 15480   0.165E+02
DAV:   4    -0.589903881440E+03   -0.59656E+02   -0.56086E+02 26480   0.454E+01
DAV:   5    -0.593114504440E+03   -0.32106E+01   -0.30401E+01 24744   0.105E+01    0.934E+01
DAV:   6    -0.798236876670E+03   -0.20512E+03   -0.42979E+02 27544   0.988E+01    0.160E+02
DAV:   7    -0.687312489723E+03    0.11092E+03   -0.54245E+02 28224   0.112E+02    0.146E+02
DAV:   8    -0.557418887303E+03    0.12989E+03   -0.22598E+02 27544   0.785E+01    0.884E+01
DAV:   9    -0.542487397640E+03    0.14931E+02   -0.81644E+01 25720   0.391E+01    0.702E+01
DAV:  10    -0.525734704681E+03    0.16753E+02   -0.58740E+01 24576   0.280E+01    0.628E+01
DAV:  11    -0.504431880035E+03    0.21303E+02   -0.70941E+01 22960   0.333E+01    0.437E+01
DAV:  12    -0.500870676379E+03    0.35612E+01   -0.38422E+01 20360   0.211E+01    0.357E+01
DAV:  13    -0.501027699387E+03   -0.15702E+00   -0.42540E+00 22472   0.688E+00    0.343E+01
DAV:  14    -0.500997067499E+03    0.30632E-01   -0.39939E-01 23616   0.155E+00    0.346E+01
DAV:  15    -0.501620439881E+03   -0.62337E+00   -0.45555E-01 27248   0.211E+00    0.350E+01
DAV:  16    -0.503015193328E+03   -0.13948E+01   -0.20868E+00 26008   0.482E+00    0.328E+01
DAV:  17    -0.506494451784E+03   -0.34793E+01   -0.54452E+00 24784   0.840E+00    0.264E+01
DAV:  18    -0.508766520376E+03   -0.22721E+01   -0.44379E+00 24984   0.758E+00    0.253E+01
DAV:  19    -0.509367292510E+03   -0.60077E+00   -0.13917E+00 24208   0.372E+00    0.233E+01
DAV:  20    -0.509728573614E+03   -0.36128E+00   -0.56851E-01 25864   0.274E+00    0.216E+01
DAV:  21    -0.510059083318E+03   -0.33051E+00   -0.13163E+00 26456   0.461E+00    0.187E+01
DAV:  22    -0.510191303599E+03   -0.13222E+00   -0.83289E-01 25288   0.365E+00    0.167E+01
DAV:  23    -0.510321972206E+03   -0.13067E+00   -0.40398E-01 25696   0.264E+00    0.157E+01
DAV:  24    -0.510458778986E+03   -0.13681E+00   -0.23925E-01 24848   0.159E+00    0.151E+01
DAV:  25    -0.510749199491E+03   -0.29042E+00   -0.47441E-01 27000   0.295E+00    0.135E+01
DAV:  26    -0.511216137375E+03   -0.46694E+00   -0.93030E-01 26136   0.275E+00    0.118E+01
DAV:  27    -0.511618093267E+03   -0.40196E+00   -0.94241E-01 26600   0.311E+00    0.104E+01
DAV:  28    -0.511814353338E+03   -0.19626E+00   -0.58306E-01 25688   0.227E+00    0.898E+00
DAV:  29    -0.512029188709E+03   -0.21484E+00   -0.68756E-01 26144   0.237E+00    0.790E+00
DAV:  30    -0.512059440484E+03   -0.30252E-01   -0.38203E-01 25144   0.188E+00    0.671E+00
DAV:  31    -0.512067012641E+03   -0.75722E-02   -0.75558E-02 24216   0.107E+00    0.608E+00
DAV:  32    -0.512103792985E+03   -0.36780E-01   -0.55985E-02 25712   0.660E-01    0.567E+00
DAV:  33    -0.512130995758E+03   -0.27203E-01   -0.19058E-02 24472   0.342E-01    0.555E+00
DAV:  34    -0.512184480641E+03   -0.53485E-01   -0.34164E-02 27112   0.538E-01    0.543E+00
DAV:  35    -0.512312354605E+03   -0.12787E+00   -0.36569E-01 26080   0.142E+00    0.466E+00
DAV:  36    -0.512421908583E+03   -0.10955E+00   -0.11775E+00 24824   0.205E+00    0.333E+00
DAV:  37    -0.512438667525E+03   -0.16759E-01   -0.16804E-01 24512   0.132E+00    0.237E+00
DAV:  38    -0.512436858214E+03    0.18093E-02   -0.24040E-02 23808   0.687E-01    0.209E+00
DAV:  39    -0.512436563856E+03    0.29436E-03   -0.22237E-02 24504   0.543E-01    0.177E+00
DAV:  40    -0.512436045020E+03    0.51884E-03   -0.41498E-02 24528   0.510E-01    0.145E+00
DAV:  41    -0.512438679057E+03   -0.26340E-02   -0.11823E-02 26256   0.437E-01    0.124E+00
DAV:  42    -0.512440969565E+03   -0.22905E-02   -0.67682E-03 23712   0.278E-01    0.951E-01
DAV:  43    -0.512443314464E+03   -0.23449E-02   -0.11575E-02 26472   0.355E-01    0.667E-01
DAV:  44    -0.512444342150E+03   -0.10277E-02   -0.30198E-03 23840   0.182E-01    0.593E-01
DAV:  45    -0.512444568604E+03   -0.22645E-03   -0.19142E-03 24912   0.140E-01    0.455E-01
DAV:  46    -0.512444458750E+03    0.10985E-03   -0.19379E-03 25280   0.138E-01    0.366E-01
DAV:  47    -0.512444658623E+03   -0.19987E-03   -0.16975E-03 25584   0.140E-01    0.261E-01
DAV:  48    -0.512444771727E+03   -0.11310E-03   -0.92282E-04 24432   0.822E-02    0.215E-01
DAV:  49    -0.512444855676E+03   -0.83949E-04   -0.78180E-04 24552   0.814E-02    0.156E-01
DAV:  50    -0.512444953478E+03   -0.97802E-04   -0.30349E-04 25448   0.532E-02    0.106E-01
DAV:  51    -0.512444998124E+03   -0.44646E-04   -0.13649E-04 22552   0.317E-02    0.846E-02
DAV:  52    -0.512445021192E+03   -0.23068E-04   -0.71404E-05 18144   0.359E-02    0.670E-02
DAV:  53    -0.512445033254E+03   -0.12061E-04   -0.11241E-04 20352   0.296E-02    0.492E-02
DAV:  54    -0.512445037959E+03   -0.47049E-05   -0.18978E-05 11104   0.130E-02
   1 F= -.51244504E+03 E0= -.51245104E+03  d E =-.512445E+03  mag=   108.4831
       N       E                     dE             d eps       ncg     rms          rms(c)
DAV:   1    -0.511373860602E+03    0.10712E+01   -0.53443E+02 15656   0.314E+01    0.927E+00
DAV:   2    -0.513700245213E+03   -0.23264E+01   -0.15408E+01 23704   0.135E+01    0.133E+01
DAV:   3    -0.514555552306E+03   -0.85531E+00   -0.71895E+00 25840   0.165E+01    0.173E+01
DAV:   4    -0.512968887372E+03    0.15867E+01   -0.29354E+00 27568   0.888E+00    0.563E+00
DAV:   5    -0.513085176624E+03   -0.11629E+00   -0.23065E-01 23320   0.237E+00    0.442E+00
DAV:   6    -0.513207981377E+03   -0.12280E+00   -0.16105E-01 22544   0.209E+00    0.310E+00
DAV:   7    -0.513265479667E+03   -0.57498E-01   -0.86220E-02 24704   0.149E+00    0.155E+00
DAV:   8    -0.513265095250E+03    0.38442E-03   -0.17597E-02 24168   0.697E-01    0.133E+00
DAV:   9    -0.513263833638E+03    0.12616E-02   -0.52240E-03 23208   0.346E-01    0.123E+00
DAV:  10    -0.513258389155E+03    0.54445E-02   -0.53742E-03 24952   0.312E-01    0.851E-01
DAV:  11    -0.513255060788E+03    0.33284E-02   -0.96186E-03 26216   0.448E-01    0.669E-01
DAV:  12    -0.513254363622E+03    0.69717E-03   -0.32992E-03 19856   0.201E-01    0.579E-01
DAV:  13    -0.513253657813E+03    0.70581E-03   -0.12325E-03 24944   0.142E-01    0.371E-01
DAV:  14    -0.513253717598E+03   -0.59785E-04   -0.84293E-04 24328   0.102E-01    0.193E-01
DAV:  15    -0.513253794239E+03   -0.76641E-04   -0.24406E-04 22776   0.659E-02    0.141E-01
DAV:  16    -0.513253824574E+03   -0.30335E-04   -0.95198E-05 21872   0.365E-02    0.113E-01
DAV:  17    -0.513253825546E+03   -0.97184E-06   -0.81329E-05 20272   0.395E-02
   2 F= -.51325383E+03 E0= -.51326044E+03  d E =-.808788E+00  mag=   108.7316
       N       E                     dE             d eps       ncg     rms          rms(c)
DAV:   1    -0.513069051358E+03    0.18477E+00   -0.37402E+01 15392   0.784E+00    0.249E+00
DAV:   2    -0.513277189759E+03   -0.20814E+00   -0.17353E+00 22608   0.314E+00    0.287E+00
DAV:   3    -0.513363910411E+03   -0.86721E-01   -0.55263E-01 25200   0.387E+00    0.453E+00
DAV:   4    -0.513261663440E+03    0.10225E+00   -0.27078E-01 26672   0.246E+00    0.158E+00
DAV:   5    -0.513276613399E+03   -0.14950E-01   -0.19492E-02 25560   0.749E-01    0.129E+00
DAV:   6    -0.513285817833E+03   -0.92044E-02   -0.19794E-02 23600   0.773E-01    0.577E-01
DAV:   7    -0.513287606207E+03   -0.17884E-02   -0.42571E-03 22920   0.256E-01    0.417E-01
DAV:   8    -0.513287325888E+03    0.28032E-03   -0.63604E-04 22280   0.131E-01    0.332E-01
DAV:   9    -0.513287089224E+03    0.23666E-03   -0.45864E-04 25240   0.897E-02    0.266E-01
DAV:  10    -0.513287086110E+03    0.31140E-05   -0.79725E-04 25512   0.108E-01    0.271E-01
DAV:  11    -0.513286880498E+03    0.20561E-03   -0.43144E-04 22080   0.679E-02    0.204E-01
DAV:  12    -0.513286775716E+03    0.10478E-03   -0.19290E-04 23536   0.569E-02    0.113E-01
DAV:  13    -0.513286791236E+03   -0.15520E-04   -0.17760E-04 18728   0.617E-02    0.641E-02
DAV:  14    -0.513286820281E+03   -0.29045E-04   -0.95393E-05 17616   0.284E-02    0.617E-02
DAV:  15    -0.513286811519E+03    0.87623E-05   -0.10585E-05  8520   0.183E-02
   3 F= -.51328681E+03 E0= -.51329368E+03  d E =-.841774E+00  mag=   108.7709
       N       E                     dE             d eps       ncg     rms          rms(c)
DAV:   1    -0.512891575036E+03    0.39525E+00   -0.53562E+01 15752   0.160E+01    0.401E+00
DAV:   2    -0.513520224283E+03   -0.62865E+00   -0.44535E+00 21848   0.634E+00    0.626E+00
DAV:   3    -0.513504711949E+03    0.15512E-01   -0.14773E+00 24368   0.676E+00    0.593E+00
DAV:   4    -0.513369555239E+03    0.13516E+00   -0.39823E-01 24560   0.307E+00    0.251E+00
DAV:   5    -0.513383407801E+03   -0.13853E-01   -0.48692E-02 23088   0.125E+00    0.191E+00
DAV:   6    -0.513414985434E+03   -0.31578E-01   -0.43271E-02 22656   0.988E-01    0.101E+00
DAV:   7    -0.513419345194E+03   -0.43598E-02   -0.10647E-02 23272   0.465E-01    0.684E-01
DAV:   8    -0.513418888666E+03    0.45653E-03   -0.22856E-03 23968   0.230E-01    0.535E-01
DAV:   9    -0.513418447513E+03    0.44115E-03   -0.87270E-04 24200   0.127E-01    0.455E-01
DAV:  10    -0.513417872248E+03    0.57527E-03   -0.12392E-03 24000   0.126E-01    0.334E-01
DAV:  11    -0.513417508749E+03    0.36350E-03   -0.12427E-03 23336   0.121E-01    0.236E-01
DAV:  12    -0.513417450167E+03    0.58582E-04   -0.38260E-04 22992   0.646E-02    0.194E-01
DAV:  13    -0.513417593362E+03   -0.14320E-03   -0.43467E-04 23976   0.597E-02    0.137E-01
DAV:  14    -0.513417642632E+03   -0.49270E-04   -0.16928E-04 22512   0.511E-02    0.105E-01
DAV:  15    -0.513417624821E+03    0.17811E-04   -0.32590E-05 10800   0.318E-02    0.779E-02
DAV:  16    -0.513417624474E+03    0.34759E-06   -0.84458E-05 14472   0.408E-02
   4 F= -.51341762E+03 E0= -.51342457E+03  d E =-.130813E+00  mag=   108.9485
       N       E                     dE             d eps       ncg     rms          rms(c)
DAV:   1    -0.512779749613E+03    0.63788E+00   -0.70466E+01 15720   0.184E+01    0.466E+00
DAV:   2    -0.513636274422E+03   -0.85652E+00   -0.59106E+00 22168   0.746E+00    0.747E+00
DAV:   3    -0.513597036524E+03    0.39238E-01   -0.20267E+00 24784   0.798E+00    0.687E+00
DAV:   4    -0.513410035055E+03    0.18700E+00   -0.55303E-01 24568   0.362E+00    0.294E+00
DAV:   5    -0.513426697702E+03   -0.16663E-01   -0.64546E-02 22712   0.144E+00    0.220E+00
DAV:   6    -0.513468342897E+03   -0.41645E-01   -0.56765E-02 22480   0.115E+00    0.123E+00
DAV:   7    -0.513475314768E+03   -0.69719E-02   -0.14688E-02 23624   0.552E-01    0.789E-01
DAV:   8    -0.513474998990E+03    0.31578E-03   -0.33795E-03 23664   0.278E-01    0.616E-01
DAV:   9    -0.513474564304E+03    0.43469E-03   -0.11159E-03 24016   0.153E-01    0.536E-01
DAV:  10    -0.513473832955E+03    0.73135E-03   -0.12410E-03 23744   0.129E-01    0.404E-01
DAV:  11    -0.513473316095E+03    0.51686E-03   -0.17331E-03 22904   0.143E-01    0.277E-01
DAV:  12    -0.513473286566E+03    0.29529E-04   -0.56902E-04 23608   0.806E-02    0.235E-01
DAV:  13    -0.513473332005E+03   -0.45439E-04   -0.44713E-04 22288   0.562E-02    0.145E-01
DAV:  14    -0.513473469196E+03   -0.13719E-03   -0.25009E-04 23816   0.541E-02    0.107E-01
DAV:  15    -0.513473485677E+03   -0.16481E-04   -0.37590E-05 14536   0.307E-02    0.959E-02
DAV:  16    -0.513473470734E+03    0.14943E-04   -0.79993E-05 18080   0.444E-02    0.611E-02
DAV:  17    -0.513473497428E+03   -0.26694E-04   -0.89420E-05 14240   0.411E-02    0.756E-02
DAV:  18    -0.513473500408E+03   -0.29795E-05   -0.76242E-05 18816   0.225E-02
   5 F= -.51347350E+03 E0= -.51348053E+03  d E =-.186689E+00  mag=   109.0615
       N       E                     dE             d eps       ncg     rms          rms(c)
DAV:   1    -0.513151488253E+03    0.32201E+00   -0.27705E+01 17632   0.140E+01    0.295E+00
DAV:   2    -0.513471432658E+03   -0.31994E+00   -0.30415E+00 15920   0.324E+00    0.188E+00
DAV:   3    -0.513522465561E+03   -0.51033E-01   -0.16033E-01 27808   0.168E+00    0.261E+00
DAV:   4    -0.513508814110E+03    0.13651E-01   -0.19120E-01 27936   0.213E+00    0.212E+00
DAV:   5    -0.513507569169E+03    0.12449E-02   -0.43442E-02 27456   0.959E-01    0.128E+00
DAV:   6    -0.513515037447E+03   -0.74683E-02   -0.16507E-02 26240   0.784E-01    0.784E-01
DAV:   7    -0.513516890520E+03   -0.18531E-02   -0.93388E-03 23672   0.470E-01    0.348E-01
DAV:   8    -0.513516873325E+03    0.17195E-04   -0.15859E-03 21264   0.140E-01    0.308E-01
DAV:   9    -0.513516670583E+03    0.20274E-03   -0.39232E-04 22360   0.712E-02    0.269E-01
DAV:  10    -0.513516299738E+03    0.37085E-03   -0.64305E-04 26328   0.104E-01    0.179E-01
DAV:  11    -0.513516197087E+03    0.10265E-03   -0.47750E-04 23416   0.669E-02    0.154E-01
DAV:  12    -0.513516145126E+03    0.51961E-04   -0.15816E-04 21272   0.527E-02    0.115E-01
DAV:  13    -0.513516174164E+03   -0.29038E-04   -0.15602E-04 22728   0.416E-02    0.752E-02
DAV:  14    -0.513516215230E+03   -0.41065E-04   -0.61054E-05 17064   0.277E-02    0.683E-02
DAV:  15    -0.513516212672E+03    0.25575E-05   -0.18283E-05  9168   0.229E-02
   6 F= -.51351621E+03 E0= -.51352307E+03  d E =-.427123E-01  mag=   109.1600
       N       E                     dE             d eps       ncg     rms          rms(c)
DAV:   1    -0.512759345418E+03    0.75687E+00   -0.59681E+01 17616   0.206E+01    0.453E+00
DAV:   2    -0.513448601522E+03   -0.68926E+00   -0.65530E+00 16000   0.484E+00    0.282E+00
DAV:   3    -0.513539572678E+03   -0.90971E-01   -0.30714E-01 28024   0.216E+00    0.340E+00
DAV:   4    -0.513563546605E+03   -0.23974E-01   -0.46268E-01 28024   0.334E+00    0.378E+00
DAV:   5    -0.513521895944E+03    0.41651E-01   -0.15984E-01 27688   0.183E+00    0.184E+00
DAV:   6    -0.513539739542E+03   -0.17844E-01   -0.30219E-02 26696   0.106E+00    0.138E+00
DAV:   7    -0.513547934751E+03   -0.81952E-02   -0.26128E-02 23944   0.831E-01    0.549E-01
DAV:   8    -0.513547967270E+03   -0.32519E-04   -0.49090E-03 21424   0.245E-01    0.463E-01
DAV:   9    -0.513547597638E+03    0.36963E-03   -0.82692E-04 22584   0.107E-01    0.402E-01
DAV:  10    -0.513546849599E+03    0.74804E-03   -0.10363E-03 26296   0.124E-01    0.286E-01
DAV:  11    -0.513546479489E+03    0.37011E-03   -0.12272E-03 23504   0.109E-01    0.231E-01
DAV:  12    -0.513546390113E+03    0.89375E-04   -0.46855E-04 23736   0.823E-02    0.176E-01
DAV:  13    -0.513546424879E+03   -0.34766E-04   -0.27938E-04 24304   0.598E-02    0.122E-01
DAV:  14    -0.513546536376E+03   -0.11150E-03   -0.17756E-04 22728   0.403E-02    0.109E-01
DAV:  15    -0.513546515110E+03    0.21265E-04   -0.54422E-05 14240   0.421E-02    0.770E-02
DAV:  16    -0.513546512057E+03    0.30536E-05   -0.41109E-05  9912   0.322E-02
   7 F= -.51354651E+03 E0= -.51355299E+03  d E =-.730116E-01  mag=   109.2667
       N       E                     dE             d eps       ncg     rms          rms(c)
DAV:   1    -0.513490259359E+03    0.56256E-01   -0.44106E+00 17688   0.558E+00    0.115E+00
DAV:   2    -0.513544427315E+03   -0.54168E-01   -0.48719E-01 16360   0.140E+00    0.109E+00
DAV:   3    -0.513577532047E+03   -0.33105E-01   -0.14882E-01 24952   0.193E+00    0.243E+00
DAV:   4    -0.513543481488E+03    0.34051E-01   -0.83851E-02 27144   0.138E+00    0.601E-01
DAV:   5    -0.513546605645E+03   -0.31242E-02   -0.37540E-03 26056   0.298E-01    0.523E-01
DAV:   6    -0.513548355851E+03   -0.17502E-02   -0.48766E-03 25536   0.414E-01    0.382E-01
DAV:   7    -0.513548057618E+03    0.29823E-03   -0.22797E-03 24168   0.248E-01    0.137E-01
DAV:   8    -0.513548087399E+03   -0.29782E-04   -0.34712E-04 20528   0.600E-02    0.130E-01
DAV:   9    -0.513548061575E+03    0.25825E-04   -0.85396E-05 18736   0.394E-02    0.107E-01
DAV:  10    -0.513548026291E+03    0.35284E-04   -0.19817E-04 22504   0.555E-02    0.745E-02
DAV:  11    -0.513548030390E+03   -0.40992E-05   -0.78077E-05 17272   0.223E-02
   8 F= -.51354803E+03 E0= -.51355438E+03  d E =-.745300E-01  mag=   109.2943
       N       E                     dE             d eps       ncg     rms          rms(c)
DAV:   1    -0.513293274394E+03    0.25475E+00   -0.19480E+01 18000   0.119E+01    0.254E+00
DAV:   2    -0.513527696211E+03   -0.23442E+00   -0.22245E+00 15920   0.266E+00    0.162E+00
DAV:   3    -0.513566700960E+03   -0.39005E-01   -0.12209E-01 28488   0.135E+00    0.235E+00
DAV:   4    -0.513552558858E+03    0.14142E-01   -0.13441E-01 27680   0.174E+00    0.162E+00
DAV:   5    -0.513560484643E+03   -0.79258E-02   -0.48869E-02 27088   0.115E+00    0.113E+00
DAV:   6    -0.513561581013E+03   -0.10964E-02   -0.16872E-02 26184   0.798E-01    0.568E-01
DAV:   7    -0.513562698576E+03   -0.11176E-02   -0.55168E-03 23464   0.366E-01    0.300E-01
DAV:   8    -0.513562645058E+03    0.53518E-04   -0.11230E-03 19680   0.138E-01    0.252E-01
DAV:   9    -0.513562523309E+03    0.12175E-03   -0.32942E-04 23592   0.602E-02    0.215E-01
DAV:  10    -0.513562346474E+03    0.17683E-03   -0.30127E-04 24912   0.579E-02    0.152E-01
DAV:  11    -0.513562254865E+03    0.91609E-04   -0.29517E-04 23440   0.515E-02    0.113E-01
DAV:  12    -0.513562250224E+03    0.46410E-05   -0.97559E-05 18472   0.326E-02
   9 F= -.51356225E+03 E0= -.51356861E+03  d E =-.142198E-01  mag=   109.4000
       N       E                     dE             d eps       ncg     rms          rms(c)
DAV:   1    -0.513451776834E+03    0.11048E+00   -0.80816E+00 18040   0.765E+00    0.163E+00
DAV:   2    -0.513550237693E+03   -0.98461E-01   -0.93605E-01 16016   0.171E+00    0.105E+00
DAV:   3    -0.513567132749E+03   -0.16895E-01   -0.49467E-02 28312   0.940E-01    0.150E+00
DAV:   4    -0.513561566953E+03    0.55658E-02   -0.67768E-02 27928   0.123E+00    0.120E+00
DAV:   5    -0.513563582828E+03   -0.20159E-02   -0.10398E-02 26808   0.479E-01    0.698E-01
DAV:   6    -0.513564143305E+03   -0.56048E-03   -0.66036E-03 26512   0.495E-01    0.322E-01
DAV:   7    -0.513564392237E+03   -0.24893E-03   -0.21880E-03 23656   0.228E-01    0.202E-01
DAV:   8    -0.513564383603E+03    0.86337E-05   -0.34363E-04 19208   0.749E-02    0.181E-01
DAV:   9    -0.513564367611E+03    0.15992E-04   -0.12350E-04 20624   0.372E-02    0.170E-01
DAV:  10    -0.513564272312E+03    0.95299E-04   -0.20559E-04 24064   0.537E-02    0.108E-01
DAV:  11    -0.513564245322E+03    0.26990E-04   -0.13174E-04 19888   0.401E-02    0.792E-02
DAV:  12    -0.513564259899E+03   -0.14577E-04   -0.60735E-05 15336   0.226E-02    0.720E-02
DAV:  13    -0.513564283391E+03   -0.23492E-04   -0.38295E-05 13072   0.228E-02    0.470E-02
DAV:  14    -0.513564296986E+03   -0.13595E-04   -0.25329E-05  9904   0.219E-02    0.303E-02
DAV:  15    -0.513564300886E+03   -0.39003E-05   -0.14763E-05  8448   0.984E-03
  10 F= -.51356430E+03 E0= -.51357064E+03  d E =-.162705E-01  mag=   109.4608
       N       E                     dE             d eps       ncg     rms          rms(c)
DAV:   1    -0.513562208326E+03    0.20887E-02   -0.15614E-01 18088   0.107E+00    0.215E-01
DAV:   2    -0.513564102954E+03   -0.18946E-02   -0.18096E-02 16136   0.238E-01    0.145E-01
DAV:   3    -0.513564248418E+03   -0.14546E-03   -0.53092E-04 24840   0.693E-02    0.142E-01
DAV:   4    -0.513564454343E+03   -0.20592E-03   -0.91887E-04 17216   0.146E-01    0.213E-01
DAV:   5    -0.513564377404E+03    0.76939E-04   -0.93481E-04 14480   0.157E-01    0.116E-01
DAV:   6    -0.513564367882E+03    0.95218E-05   -0.16009E-04 16552   0.797E-02    0.461E-02
DAV:   7    -0.513564373845E+03   -0.59624E-05   -0.76437E-05 19848   0.305E-02
  11 F= -.51356437E+03 E0= -.51357071E+03  d E =-.163435E-01  mag=   109.4512
       N       E                     dE             d eps       ncg     rms          rms(c)
DAV:   1    -0.513537714112E+03    0.26654E-01   -0.25986E+00 16144   0.393E+00    0.950E-01
DAV:   2    -0.513561429393E+03   -0.23715E-01   -0.21364E-01 15896   0.100E+00    0.712E-01
DAV:   3    -0.513584940268E+03   -0.23511E-01   -0.64015E-02 27184   0.124E+00    0.189E+00
DAV:   4    -0.513563827989E+03    0.21112E-01   -0.61366E-02 28328   0.116E+00    0.586E-01
DAV:   5    -0.513566684509E+03   -0.28565E-02   -0.34574E-03 27136   0.283E-01    0.475E-01
DAV:   6    -0.513567224474E+03   -0.53997E-03   -0.35578E-03 25432   0.353E-01    0.219E-01
DAV:   7    -0.513567159504E+03    0.64970E-04   -0.10376E-03 23328   0.156E-01    0.116E-01
DAV:   8    -0.513567176246E+03   -0.16741E-04   -0.15448E-04 18920   0.412E-02    0.119E-01
DAV:   9    -0.513567150299E+03    0.25947E-04   -0.47242E-05 15112   0.334E-02    0.961E-02
DAV:  10    -0.513567117375E+03    0.32924E-04   -0.17087E-04 21112   0.537E-02    0.683E-02
DAV:  11    -0.513567120372E+03   -0.29972E-05   -0.52694E-05 14760   0.193E-02
  12 F= -.51356712E+03 E0= -.51357346E+03  d E =-.274653E-02  mag=   109.4777
       N       E                     dE             d eps       ncg     rms          rms(c)
DAV:   1    -0.513554741404E+03    0.12376E-01   -0.11187E+00 16160   0.258E+00    0.626E-01
DAV:   2    -0.513565471870E+03   -0.10730E-01   -0.93542E-02 16096   0.692E-01    0.566E-01
DAV:   3    -0.513574682423E+03   -0.92106E-02   -0.35078E-02 25064   0.950E-01    0.126E+00
DAV:   4    -0.513565910817E+03    0.87716E-02   -0.25281E-02 27976   0.741E-01    0.377E-01
DAV:   5    -0.513567166613E+03   -0.12558E-02   -0.13284E-03 26880   0.182E-01    0.315E-01
DAV:   6    -0.513567536340E+03   -0.36973E-03   -0.18513E-03 26032   0.253E-01    0.202E-01
DAV:   7    -0.513567438360E+03    0.97979E-04   -0.74233E-04 23800   0.138E-01    0.940E-02
DAV:   8    -0.513567449926E+03   -0.11565E-04   -0.10563E-04 16928   0.321E-02    0.928E-02
DAV:   9    -0.513567431215E+03    0.18710E-04   -0.24906E-05 11008   0.290E-02    0.697E-02
DAV:  10    -0.513567440953E+03   -0.97380E-05   -0.15503E-04 22544   0.386E-02    0.560E-02
DAV:  11    -0.513567439655E+03    0.12983E-05   -0.19780E-05 10016   0.191E-02
  13 F= -.51356744E+03 E0= -.51357378E+03  d E =-.306581E-02  mag=   109.4950
       N       E                     dE             d eps       ncg     rms          rms(c)
DAV:   1    -0.513555018335E+03    0.12423E-01   -0.13678E+00 15632   0.257E+00    0.742E-01
DAV:   2    -0.513564522132E+03   -0.95038E-02   -0.76095E-02 16024   0.657E-01    0.577E-01
DAV:   3    -0.513580099421E+03   -0.15577E-01   -0.39002E-02 28296   0.955E-01    0.153E+00
DAV:   4    -0.513566494400E+03    0.13605E-01   -0.40036E-02 28504   0.933E-01    0.434E-01
DAV:   5    -0.513568484553E+03   -0.19902E-02   -0.22996E-03 23832   0.186E-01    0.203E-01
DAV:   6    -0.513568676577E+03   -0.19202E-03   -0.78803E-04 25408   0.175E-01    0.189E-01
DAV:   7    -0.513568523444E+03    0.15313E-03   -0.41508E-04 22880   0.121E-01    0.965E-02
DAV:   8    -0.513568513712E+03    0.97317E-05   -0.71005E-05 16312   0.330E-02
  14 F= -.51356851E+03 E0= -.51357492E+03  d E =-.107406E-02  mag=   109.4983
       N       E                     dE             d eps       ncg     rms          rms(c)
DAV:   1    -0.513558661628E+03    0.98618E-02   -0.99228E-01 15624   0.219E+00    0.637E-01
DAV:   2    -0.513565482101E+03   -0.68205E-02   -0.55451E-02 16032   0.546E-01    0.488E-01
DAV:   3    -0.513567453304E+03   -0.19712E-02   -0.27099E-03 27720   0.204E-01    0.456E-01
DAV:   4    -0.513571047640E+03   -0.35943E-02   -0.15246E-02 28400   0.584E-01    0.823E-01
DAV:   5    -0.513568402821E+03    0.26448E-02   -0.10715E-02 27584   0.496E-01    0.183E-01
DAV:   6    -0.513568461538E+03   -0.58718E-04   -0.87042E-04 25056   0.149E-01    0.135E-01
DAV:   7    -0.513568427852E+03    0.33687E-04   -0.18946E-04 21744   0.744E-02    0.109E-01
DAV:   8    -0.513568403707E+03    0.24144E-04   -0.51203E-05 15848   0.289E-02    0.933E-02
DAV:   9    -0.513568369172E+03    0.34536E-04   -0.10684E-04 22152   0.311E-02    0.622E-02
DAV:  10    -0.513568360650E+03    0.85215E-05   -0.48155E-05 15720   0.214E-02
  15 F= -.51356836E+03 E0= -.51357482E+03  d E =-.920995E-03  mag=   109.5046
       N       E                     dE             d eps       ncg     rms          rms(c)
DAV:   1    -0.513567079314E+03    0.12899E-02   -0.14456E-01 15608   0.836E-01    0.241E-01
DAV:   2    -0.513568108573E+03   -0.10293E-02   -0.81124E-03 16088   0.215E-01    0.192E-01
DAV:   3    -0.513569770934E+03   -0.16624E-02   -0.43153E-03 28000   0.323E-01    0.508E-01
DAV:   4    -0.513568298570E+03    0.14724E-02   -0.43274E-03 22632   0.308E-01    0.146E-01
DAV:   5    -0.513568532012E+03   -0.23344E-03   -0.27264E-04 23056   0.571E-02    0.552E-02
DAV:   6    -0.513568553232E+03   -0.21220E-04   -0.62804E-05 14088   0.539E-02    0.590E-02
DAV:   7    -0.513568539400E+03    0.13832E-04   -0.32465E-05 11856   0.364E-02    0.340E-02
DAV:   8    -0.513568536489E+03    0.29105E-05   -0.11276E-05  8936   0.131E-02
  16 F= -.51356854E+03 E0= -.51357498E+03  d E =-.109683E-02  mag=   109.5029
       N       E                     dE             d eps       ncg     rms          rms(c)
DAV:   1    -0.513567637617E+03    0.90178E-03   -0.94893E-02 15640   0.678E-01    0.195E-01
DAV:   2    -0.513568283761E+03   -0.64614E-03   -0.52963E-03 16160   0.169E-01    0.153E-01
DAV:   3    -0.513569141976E+03   -0.85822E-03   -0.19839E-03 25600   0.217E-01    0.359E-01
DAV:   4    -0.513568410746E+03    0.73123E-03   -0.20313E-03 17584   0.215E-01    0.116E-01
DAV:   5    -0.513568567337E+03   -0.15659E-03   -0.17747E-04 22256   0.376E-02    0.567E-02
DAV:   6    -0.513568564449E+03    0.28882E-05   -0.53911E-05 12264   0.517E-02
  17 F= -.51356856E+03 E0= -.51357499E+03  d E =-.112479E-02  mag=   109.5016
       N       E                     dE             d eps       ncg     rms          rms(c)
DAV:   1    -0.513566443060E+03    0.21243E-02   -0.28392E-01 15136   0.114E+00    0.310E-01
DAV:   2    -0.513568387613E+03   -0.19446E-02   -0.15041E-02 17296   0.336E-01    0.311E-01
DAV:   3    -0.513569688288E+03   -0.13007E-02   -0.67418E-03 23552   0.428E-01    0.524E-01
DAV:   4    -0.513568510295E+03    0.11780E-02   -0.40589E-03 25456   0.304E-01    0.173E-01
DAV:   5    -0.513568957650E+03   -0.44736E-03   -0.67382E-04 25456   0.128E-01    0.149E-01
DAV:   6    -0.513568891931E+03    0.65719E-04   -0.24832E-04 24528   0.945E-02    0.825E-02
DAV:   7    -0.513568882878E+03    0.90530E-05   -0.60906E-05 16152   0.398E-02
  18 F= -.51356888E+03 E0= -.51357532E+03  d E =-.318429E-03  mag=   109.4884
