<?xml version="1.0" encoding="ISO-8859-1"?>
<modeling>
 <generator>
  <i name="program" type="string">vasp </i>
  <i name="version" type="string">6.3.2  </i>
  <i name="subversion" type="string">27Jun22 (build Mar 15 2023 15:45:48) complex                          parallel </i>
  <i name="platform" type="string">LinuxIFC </i>
  <i name="date" type="string">2025 02 09 </i>
  <i name="time" type="string">23:28:55 </i>
 </generator>
 <incar>
  <i type="string" name="SYSTEM">ni3al</i>
  <i type="int" name="ISTART">     1</i>
  <i type="string" name="PREC">Accurate</i>
  <i type="string" name="ALGO">Normal</i>
  <i type="int" name="ISPIN">     2</i>
  <i type="int" name="IMIX">     4</i>
  <i name="AMIX">      0.05000000</i>
  <i name="BMIX">      0.00010000</i>
  <i name="AMIN">      0.01000000</i>
  <i type="int" name="ICHARG">     1</i>
  <i type="int" name="NELM">   150</i>
  <i type="int" name="IBRION">     2</i>
  <i name="EDIFF">      0.00001000</i>
  <i name="EDIFFG">     -0.02000000</i>
  <i type="int" name="NSW">   300</i>
  <i type="int" name="ISIF">     2</i>
  <i name="ENCUT">    450.00000000</i>
  <i type="string" name="LREAL">Auto</i>
  <i type="int" name="ISMEAR">     1</i>
  <i name="SIGMA">      0.15000000</i>
  <i type="int" name="LMAXMIX">     4</i>
  <i type="logical" name="LWAVE"> F  </i>
  <i type="logical" name="LCHARG"> F  </i>
  <i type="logical" name="LDIPOL"> T  </i>
  <i type="int" name="IDIPOL">     3</i>
 </incar>
 <primitive_cell>
  <structure name="primitive_cell" >
   <crystal>
    <varray name="basis" >
     <v>       8.53269958       0.00000000       0.00000000 </v>
     <v>      -0.00051933       8.49699972       0.00000000 </v>
     <v>       0.00000000       0.00000000      23.59499931 </v>
    </varray>
    <i name="volume">   1710.69280467 </i>
    <varray name="rec_basis" >
     <v>       0.11719620       0.00000716       0.00000000 </v>
     <v>       0.00000000       0.11768860       0.00000000 </v>
     <v>       0.00000000       0.00000000       0.04238186 </v>
    </varray>
   </crystal>
   <varray name="positions" >
    <v>       0.00086000       0.99993000       0.24271000 </v>
    <v>       0.16589957       0.16471079       0.30323101 </v>
    <v>       0.50544035       0.16970429       0.30604542 </v>
    <v>       0.66822000       0.00107000       0.24272000 </v>
    <v>       0.83417243       0.16743432       0.30394797 </v>
    <v>       0.00044000       0.33497000       0.24240000 </v>
    <v>       0.16685214       0.50206384       0.30400934 </v>
    <v>       0.33469000       0.33305000       0.24267000 </v>
    <v>       0.49980869       0.49742802       0.30372178 </v>
    <v>       0.83502648       0.50420770       0.30217990 </v>
    <v>       0.16863847       0.83457814       0.30501553 </v>
    <v>       0.33342000       0.66555000       0.24261000 </v>
    <v>       0.83648674       0.83311478       0.30363590 </v>
    <v>       0.00064000       0.00119000       0.00199000 </v>
    <v>       0.99637837       0.00459563       0.36160297 </v>
    <v>       0.16843000       0.16962000       0.06269000 </v>
    <v>       0.33460000       0.00297000       0.00254000 </v>
    <v>       0.33708720       0.00653675       0.36195768 </v>
    <v>       0.50463000       0.16850000       0.06120000 </v>
    <v>       0.83272000       0.16670000       0.06193000 </v>
    <v>       0.00004000       0.33467000       0.00213000 </v>
    <v>       0.99857738       0.33186373       0.36006574 </v>
    <v>       0.16757000       0.49895000       0.06268000 </v>
    <v>       0.50099000       0.49896000       0.06206000 </v>
    <v>       0.83393000       0.50234000       0.06235000 </v>
    <v>       0.00121000       0.66785000       0.00188000 </v>
    <v>       0.99786624       0.66609651       0.36044313 </v>
    <v>       0.16792000       0.83462000       0.06228000 </v>
    <v>       0.33437000       0.66664000       0.00225000 </v>
    <v>       0.34005745       0.66315868       0.36175193 </v>
    <v>       0.50152000       0.83563000       0.06217000 </v>
    <v>       0.66753000       0.66705000       0.00175000 </v>
    <v>       0.66339310       0.66459610       0.36034303 </v>
    <v>       0.83293000       0.83584000       0.06235000 </v>
    <v>       0.00121000       0.00098000       0.12225000 </v>
    <v>       0.16700000       0.16811000       0.18239000 </v>
    <v>       0.33470000       0.00227000       0.12192000 </v>
    <v>       0.50174000       0.16716000       0.18263000 </v>
    <v>       0.83421000       0.16639000       0.18283000 </v>
    <v>       0.16964000       0.49868000       0.18209000 </v>
    <v>       0.50219000       0.50081000       0.18317000 </v>
    <v>       0.66741000       0.33395000       0.12233000 </v>
    <v>       0.83134000       0.50253000       0.18283000 </v>
    <v>       0.00132000       0.66795000       0.12253000 </v>
    <v>       0.16898000       0.83509000       0.18243000 </v>
    <v>       0.33446000       0.66703000       0.12223000 </v>
    <v>       0.49971000       0.83538000       0.18278000 </v>
    <v>       0.66698000       0.66840000       0.12259000 </v>
    <v>       0.83488000       0.83403000       0.18294000 </v>
    <v>       0.33558000       0.99863000       0.24353000 </v>
    <v>       0.66801000       0.33262000       0.24229000 </v>
    <v>       0.00448000       0.66739000       0.24217000 </v>
    <v>       0.49661475       0.83343711       0.30116455 </v>
    <v>       0.66521000       0.67351000       0.24327000 </v>
    <v>       0.66620000       0.99680000       0.00000000 </v>
    <v>       0.66737432       0.98761411       0.36400103 </v>
    <v>       0.33213000       0.33386000       0.00135000 </v>
    <v>       0.32276710       0.33243764       0.36515367 </v>
    <v>       0.67040000       0.33673000       0.00321000 </v>
    <v>       0.67730008       0.34335154       0.36693267 </v>
    <v>       0.66728000       0.99998000       0.12246000 </v>
    <v>       0.99806000       0.33495000       0.12235000 </v>
    <v>       0.33675000       0.33238000       0.12261000 </v>
    <v>       0.16864000       0.83458000       0.42000000 </v>
   </varray>
  </structure>
  <varray name="primitive_index" >
   <v type="int" >        1 </v>
   <v type="int" >        2 </v>
   <v type="int" >        3 </v>
   <v type="int" >        4 </v>
   <v type="int" >        5 </v>
   <v type="int" >        6 </v>
   <v type="int" >        7 </v>
   <v type="int" >        8 </v>
   <v type="int" >        9 </v>
   <v type="int" >       10 </v>
   <v type="int" >       11 </v>
   <v type="int" >       12 </v>
   <v type="int" >       13 </v>
   <v type="int" >       14 </v>
   <v type="int" >       15 </v>
   <v type="int" >       16 </v>
   <v type="int" >       17 </v>
   <v type="int" >       18 </v>
   <v type="int" >       19 </v>
   <v type="int" >       20 </v>
   <v type="int" >       21 </v>
   <v type="int" >       22 </v>
   <v type="int" >       23 </v>
   <v type="int" >       24 </v>
   <v type="int" >       25 </v>
   <v type="int" >       26 </v>
   <v type="int" >       27 </v>
   <v type="int" >       28 </v>
   <v type="int" >       29 </v>
   <v type="int" >       30 </v>
   <v type="int" >       31 </v>
   <v type="int" >       32 </v>
   <v type="int" >       33 </v>
   <v type="int" >       34 </v>
   <v type="int" >       35 </v>
   <v type="int" >       36 </v>
   <v type="int" >       37 </v>
   <v type="int" >       38 </v>
   <v type="int" >       39 </v>
   <v type="int" >       40 </v>
   <v type="int" >       41 </v>
   <v type="int" >       42 </v>
   <v type="int" >       43 </v>
   <v type="int" >       44 </v>
   <v type="int" >       45 </v>
   <v type="int" >       46 </v>
   <v type="int" >       47 </v>
   <v type="int" >       48 </v>
   <v type="int" >       49 </v>
   <v type="int" >       50 </v>
   <v type="int" >       51 </v>
   <v type="int" >       52 </v>
   <v type="int" >       53 </v>
   <v type="int" >       54 </v>
   <v type="int" >       55 </v>
   <v type="int" >       56 </v>
   <v type="int" >       57 </v>
   <v type="int" >       58 </v>
   <v type="int" >       59 </v>
   <v type="int" >       60 </v>
   <v type="int" >       61 </v>
   <v type="int" >       62 </v>
   <v type="int" >       63 </v>
   <v type="int" >       64 </v>
  </varray>
 </primitive_cell>
 <kpoints>
  <generation param="Gamma">
   <v type="int" name="divisions">       4        4        1 </v>
   <v name="usershift">      0.00000000       0.00000000       0.00000000 </v>
   <v name="genvec1">      0.25000000       0.00000000       0.00000000 </v>
   <v name="genvec2">      0.00000000       0.25000000       0.00000000 </v>
   <v name="genvec3">      0.00000000       0.00000000       1.00000000 </v>
   <v name="shift">      0.00000000       0.00000000       0.00000000 </v>
  </generation>
  <varray name="kpointlist" >
   <v>       0.00000000       0.00000000       0.00000000 </v>
   <v>       0.25000000       0.00000000       0.00000000 </v>
   <v>       0.50000000       0.00000000       0.00000000 </v>
   <v>       0.00000000       0.25000000       0.00000000 </v>
   <v>       0.25000000       0.25000000       0.00000000 </v>
   <v>       0.50000000       0.25000000       0.00000000 </v>
   <v>      -0.25000000       0.25000000       0.00000000 </v>
   <v>       0.00000000       0.50000000       0.00000000 </v>
   <v>       0.25000000       0.50000000       0.00000000 </v>
   <v>       0.50000000       0.50000000       0.00000000 </v>
  </varray>
  <varray name="weights" >
   <v>       0.06250000 </v>
   <v>       0.12500000 </v>
   <v>       0.06250000 </v>
   <v>       0.12500000 </v>
   <v>       0.12500000 </v>
   <v>       0.12500000 </v>
   <v>       0.12500000 </v>
   <v>       0.06250000 </v>
   <v>       0.12500000 </v>
   <v>       0.06250000 </v>
  </varray>
 </kpoints>
 <parameters>
  <separator name="general" >
   <i type="string" name="SYSTEM">ni3al</i>
   <i type="logical" name="LCOMPAT"> F  </i>
  </separator>
  <separator name="electronic" >
   <i type="string" name="PREC">accura</i>
   <i name="ENMAX">    450.00000000</i>
   <i name="ENAUG">    519.42400000</i>
   <i name="EDIFF">      0.00001000</i>
   <i type="int" name="IALGO">    38</i>
   <i type="int" name="IWAVPR">    11</i>
   <i type="int" name="NBANDS">   376</i>
   <i type="int" name="NBANDSLOW">    -1</i>
   <i type="int" name="NBANDSHIGH">    -1</i>
   <i name="NELECT">    574.00000000</i>
   <i type="int" name="TURBO">     0</i>
   <i type="int" name="IRESTART">     0</i>
   <i type="int" name="NREBOOT">     0</i>
   <i type="int" name="NMIN">     0</i>
   <i name="EREF">      0.00000000</i>
   <separator name="electronic smearing" >
    <i type="int" name="ISMEAR">     1</i>
    <i name="SIGMA">      0.15000000</i>
    <i name="KSPACING">      0.50000000</i>
    <i type="logical" name="KGAMMA"> T  </i>
    <i type="logical" name="KBLOWUP"> T  </i>
   </separator>
   <separator name="electronic projectors" >
    <i type="logical" name="LREAL"> T  </i>
    <v name="ROPT">     -0.00025000     -0.00025000     -0.00025000</v>
    <i type="int" name="LMAXPAW">  -100</i>
    <i type="int" name="LMAXMIX">     4</i>
    <i type="logical" name="NLSPLINE"> F  </i>
   </separator>
   <separator name="electronic startup" >
    <i type="int" name="ISTART">     0</i>
    <i type="int" name="ICHARG">     1</i>
    <i type="int" name="INIWAV">     1</i>
   </separator>
   <separator name="electronic spin" >
    <i type="int" name="ISPIN">     2</i>
    <i type="logical" name="LNONCOLLINEAR"> F  </i>
    <v name="MAGMOM">      1.00000000      1.00000000      1.00000000      1.00000000      1.00000000      1.00000000      1.00000000      1.00000000      1.00000000      1.00000000      1.00000000      1.00000000      1.00000000      1.00000000      1.00000000      1.00000000      1.00000000      1.00000000      1.00000000      1.00000000
      1.00000000      1.00000000      1.00000000      1.00000000      1.00000000      1.00000000      1.00000000      1.00000000      1.00000000      1.00000000      1.00000000      1.00000000      1.00000000      1.00000000      1.00000000      1.00000000      1.00000000      1.00000000      1.00000000      1.00000000
      1.00000000      1.00000000      1.00000000      1.00000000      1.00000000      1.00000000      1.00000000      1.00000000      1.00000000      1.00000000      1.00000000      1.00000000      1.00000000      1.00000000      1.00000000      1.00000000      1.00000000      1.00000000      1.00000000      1.00000000
      1.00000000      1.00000000      1.00000000      1.00000000</v>
    <i name="NUPDOWN">     -1.00000000</i>
    <i type="logical" name="LSORBIT"> F  </i>
    <v name="SAXIS">      0.00000000      0.00000000      1.00000000</v>
    <i type="logical" name="LSPIRAL"> F  </i>
    <v name="QSPIRAL">      0.00000000      0.00000000      0.00000000</v>
    <i type="logical" name="LZEROZ"> F  </i>
   </separator>
   <separator name="electronic exchange-correlation" >
    <i type="logical" name="LASPH"> F  </i>
    <i type="logical" name="LMETAGGA"> F  </i>
   </separator>
   <separator name="electronic convergence" >
    <i type="int" name="NELM">   150</i>
    <i type="int" name="NELMDL">     0</i>
    <i type="int" name="NELMIN">     2</i>
    <i name="ENINI">    450.00000000</i>
    <separator name="electronic convergence detail" >
     <i type="logical" name="LDIAG"> T  </i>
     <i type="logical" name="LSUBROT"> F  </i>
     <i name="WEIMIN">      0.00100000</i>
     <i name="EBREAK">      0.00000001</i>
     <i name="DEPER">      0.30000000</i>
     <i type="int" name="NRMM">     4</i>
     <i name="TIME">      0.40000000</i>
    </separator>
   </separator>
   <separator name="electronic mixer" >
    <i name="AMIX">      0.05000000</i>
    <i name="BMIX">      0.00010000</i>
    <i name="AMIN">      0.01000000</i>
    <i name="AMIX_MAG">      0.20000000</i>
    <i name="BMIX_MAG">      0.00010000</i>
    <separator name="electronic mixer details" >
     <i type="int" name="IMIX">     4</i>
     <i type="logical" name="MIXFIRST"> F  </i>
     <i type="int" name="MAXMIX">   -45</i>
     <i name="WC">    100.00000000</i>
     <i type="int" name="INIMIX">     1</i>
     <i type="int" name="MIXPRE">     1</i>
     <i type="int" name="MREMOVE">     5</i>
    </separator>
   </separator>
   <separator name="electronic dipolcorrection" >
    <i type="logical" name="LDIPOL"> T  </i>
    <i type="logical" name="LMONO"> F  </i>
    <i type="int" name="IDIPOL">     3</i>
    <i name="EPSILON">      1.00000000</i>
    <v name="DIPOL">   -100.00000000   -100.00000000   -100.00000000</v>
    <i name="EFIELD">      0.00000000</i>
   </separator>
  </separator>
  <separator name="grids" >
   <i type="int" name="NGX">    60</i>
   <i type="int" name="NGY">    60</i>
   <i type="int" name="NGZ">   168</i>
   <i type="int" name="NGXF">   120</i>
   <i type="int" name="NGYF">   120</i>
   <i type="int" name="NGZF">   336</i>
   <i type="logical" name="ADDGRID"> F  </i>
  </separator>
  <separator name="ionic" >
   <i type="int" name="NSW">   300</i>
   <i type="int" name="IBRION">     2</i>
   <i type="int" name="MDALGO">     0</i>
   <i type="int" name="ISIF">     2</i>
   <i name="PSTRESS">      0.00000000</i>
   <i name="EDIFFG">     -0.02000000</i>
   <i type="int" name="NFREE">     1</i>
   <i name="POTIM">      0.50000000</i>
   <i name="SMASS">     -3.00000000</i>
   <i name="SCALEE">      1.00000000</i>
  </separator>
  <separator name="ionic md" >
   <i name="TEBEG">      0.00010000</i>
   <i name="TEEND">      0.00010000</i>
   <i type="int" name="NBLOCK">     1</i>
   <i type="int" name="KBLOCK">   300</i>
   <i type="int" name="NPACO">   256</i>
   <i name="APACO">     10.00000000</i>
  </separator>
  <separator name="symmetry" >
   <i type="int" name="ISYM">     2</i>
   <i name="SYMPREC">      0.00001000</i>
  </separator>
  <separator name="dos" >
   <i type="int" name="LORBIT">     0</i>
   <v name="RWIGS">     -1.00000000     -1.00000000     -1.00000000</v>
   <i type="int" name="NEDOS">   301</i>
   <i name="EMIN">     10.00000000</i>
   <i name="EMAX">    -10.00000000</i>
   <i name="EFERMI">      0.00000000</i>
  </separator>
  <separator name="writing" >
   <i type="int" name="NWRITE">     2</i>
   <i type="logical" name="LWAVE"> F  </i>
   <i type="logical" name="LDOWNSAMPLE"> F  </i>
   <i type="logical" name="LCHARG"> F  </i>
   <i type="logical" name="LPARD"> F  </i>
   <i type="logical" name="LVTOT"> F  </i>
   <i type="logical" name="LVHAR"> F  </i>
   <i type="logical" name="LELF"> F  </i>
   <i type="logical" name="LOPTICS"> F  </i>
   <v name="STM">      0.00000000      0.00000000      0.00000000      0.00000000      0.00000000      0.00000000      0.00000000</v>
  </separator>
  <separator name="performance" >
   <i type="int" name="NPAR">     1</i>
   <i type="int" name="NSIM">     4</i>
   <i type="int" name="NBLK">    -1</i>
   <i type="logical" name="LPLANE"> T  </i>
   <i type="logical" name="LSCALAPACK"> T  </i>
   <i type="logical" name="LSCAAWARE"> F  </i>
   <i type="logical" name="LSCALU"> F  </i>
   <i type="logical" name="LASYNC"> F  </i>
   <i type="logical" name="LORBITALREAL"> F  </i>
  </separator>
  <separator name="miscellaneous" >
   <i type="int" name="IDIOT">     3</i>
   <i type="int" name="PHON_NSTRUCT">    -1</i>
   <i type="logical" name="LMUSIC"> F  </i>
   <v name="POMASS">     55.84700000     51.99600000    207.20000000</v>
   <v name="DARWINR">      0.00000000      0.00000000      0.00000000</v>
   <v name="DARWINV">      1.00000000      1.00000000      1.00000000</v>
   <i type="logical" name="LCORR"> T  </i>
  </separator>
  <i type="logical" name="GGA_COMPAT"> T  </i>
  <i type="logical" name="LBERRY"> F  </i>
  <i type="int" name="ICORELEVEL">     0</i>
  <i type="logical" name="LDAU"> F  </i>
  <i type="int" name="I_CONSTRAINED_M">     0</i>
  <separator name="electronic exchange-correlation" >
   <i type="string" name="GGA">--</i>
   <i type="int" name="VOSKOWN">     0</i>
   <i type="logical" name="LHFCALC"> F  </i>
   <i type="string" name="PRECFOCK"></i>
   <i type="logical" name="LSYMGRAD"> F  </i>
   <i type="logical" name="LHFONE"> F  </i>
   <i type="logical" name="LRHFCALC"> F  </i>
   <i type="logical" name="LTHOMAS"> F  </i>
   <i type="logical" name="LMODELHF"> F  </i>
   <i type="logical" name="LFOCKACE"> F  </i>
   <i name="ENCUT4O">     -1.00000000</i>
   <i type="int" name="EXXOEP">     0</i>
   <i type="int" name="FOURORBIT">     0</i>
   <i name="AEXX">      0.00000000</i>
   <i name="HFALPHA">      0.00000000</i>
   <i name="MCALPHA">      0.00000000</i>
   <i name="ALDAX">      1.00000000</i>
   <i name="AGGAX">      1.00000000</i>
   <i name="ALDAC">      1.00000000</i>
   <i name="AGGAC">      1.00000000</i>
   <i type="int" name="NKREDX">     1</i>
   <i type="int" name="NKREDY">     1</i>
   <i type="int" name="NKREDZ">     1</i>
   <i type="logical" name="SHIFTRED"> F  </i>
   <i type="logical" name="ODDONLY"> F  </i>
   <i type="logical" name="EVENONLY"> F  </i>
   <i type="int" name="LMAXFOCK">     0</i>
   <i type="int" name="NMAXFOCKAE">     0</i>
   <i type="logical" name="LFOCKAEDFT"> F  </i>
   <i name="HFSCREEN">      0.00000000</i>
   <i name="HFSCREENC">      0.00000000</i>
   <i type="int" name="NBANDSGWLOW">     0</i>
  </separator>
  <separator name="vdW DFT" >
   <i type="logical" name="LUSE_VDW"> F  </i>
   <i name="Zab_VDW">     -0.84910000</i>
   <i name="PARAM1">      0.12340000</i>
   <i name="PARAM2">      1.00000000</i>
   <i name="PARAM3">      0.00000000</i>
  </separator>
  <separator name="model GW" >
   <i type="int" name="MODEL_GW">     0</i>
   <i name="MODEL_EPS0">     16.03774504</i>
   <i name="MODEL_ALPHA">      1.00000000</i>
  </separator>
  <separator name="linear response parameters" >
   <i type="logical" name="LEPSILON"> F  </i>
   <i type="logical" name="LRPA"> F  </i>
   <i type="logical" name="LNABLA"> F  </i>
   <i type="logical" name="LVEL"> F  </i>
   <i name="CSHIFT">      0.10000000</i>
   <i name="OMEGAMAX">     -1.00000000</i>
   <i name="DEG_THRESHOLD">      0.00200000</i>
   <i name="RTIME">     -0.10000000</i>
   <i name="WPLASMAI">      0.00000000</i>
   <v name="DFIELD">      0.00000000      0.00000000      0.00000000</v>
   <v name="WPLASMA">      0.00000000      0.00000000      0.00000000      0.00000000      0.00000000      0.00000000      0.00000000      0.00000000      0.00000000</v>
  </separator>
  <separator name="orbital magnetization" >
   <i type="logical" name="NUCIND"> F  </i>
   <v name="MAGPOS">      0.00000000      0.00000000      0.00000000</v>
   <i type="logical" name="LNICSALL"> T  </i>
   <i type="logical" name="ORBITALMAG"> F  </i>
   <i type="logical" name="LMAGBLOCH"> F  </i>
   <i type="logical" name="LCHIMAG"> F  </i>
   <i type="logical" name="LGAUGE"> T  </i>
   <i type="int" name="MAGATOM">     0</i>
   <v name="MAGDIPOL">      0.00000000      0.00000000      0.00000000</v>
   <v name="AVECCONST">      0.00000000      0.00000000      0.00000000</v>
  </separator>
  <separator name="response functions" >
   <i type="logical" name="LFINITE_TEMPERATURE"> F  </i>
   <i type="logical" name="LADDER"> F  </i>
   <i type="logical" name="LRPAFORCE"> F  </i>
   <i type="logical" name="LFXC"> F  </i>
   <i type="logical" name="LHARTREE"> T  </i>
   <i type="int" name="IBSE">     0</i>
   <v type="int" name="KPOINT">    -1     0     0     0</v>
   <i type="logical" name="LTCTC"> F  </i>
   <i type="logical" name="LTCTE"> F  </i>
   <i type="logical" name="LTETE"> F  </i>
   <i type="logical" name="LTRIPLET"> F  </i>
   <i type="logical" name="LFXCEPS"> F  </i>
   <i type="logical" name="LFXHEG"> F  </i>
   <i type="int" name="NATURALO">     2</i>
   <i type="logical" name="LHOLEGF"> F  </i>
   <i type="logical" name="L2ORDER"> F  </i>
   <i type="logical" name="LDMP1"> F  </i>
   <i type="logical" name="LMP2LT"> F  </i>
   <i type="logical" name="LSMP2LT"> F  </i>
   <i type="logical" name="LGWLF"> F  </i>
   <i name="ENCUTGW">     -2.00000000</i>
   <i name="ENCUTGWSOFT">     -2.00000000</i>
   <i name="ENCUTLF">     -1.00000000</i>
   <i type="logical" name="LESF_SPLINES"> F  </i>
   <i type="int" name="LMAXMP2">    -1</i>
   <i name="SCISSOR">      0.00000000</i>
   <i type="int" name="NOMEGA">     0</i>
   <i type="int" name="NOMEGAR">     0</i>
   <i type="int" name="NBANDSGW">    -1</i>
   <i type="int" name="NBANDSO">    -1</i>
   <i type="int" name="NBANDSV">    -1</i>
   <i type="int" name="NELMGW">     1</i>
   <i type="int" name="NELMHF">     1</i>
   <i type="int" name="DIM">     3</i>
   <i type="int" name="IESPILON">     4</i>
   <i type="int" name="ANTIRES">     0</i>
   <i name="OMEGAMAX">    -30.00000000</i>
   <i name="OMEGAMIN">    -30.00000000</i>
   <i name="OMEGATL">   -200.00000000</i>
   <i type="int" name="OMEGAGRID">     0</i>
   <i name="CSHIFT">     -0.10000000</i>
   <i type="logical" name="LSELFENERGY"> F  </i>
   <i type="logical" name="LSPECTRAL"> F  </i>
   <i type="logical" name="LSPECTRALGW"> F  </i>
   <i type="logical" name="LSINGLES"> F  </i>
   <i type="logical" name="LFERMIGW"> F  </i>
   <i type="logical" name="ODDONLYGW"> F  </i>
   <i type="logical" name="EVENONLYGW"> F  </i>
   <i type="int" name="NKREDLFX">     1</i>
   <i type="int" name="NKREDLFY">     1</i>
   <i type="int" name="NKREDLFZ">     1</i>
   <i type="int" name="MAXMEM">  2800</i>
   <i type="int" name="TELESCOPE">     0</i>
   <i type="int" name="NTAUPAR">    -1</i>
   <i type="int" name="NOMEGAPAR">    -1</i>
   <i name="DAMP_NEWTON">      0.80000001</i>
   <i name="LAMBDA">      1.00000000</i>
  </separator>
  <separator name="External order field" >
   <i name="OFIELD_KAPPA">      0.00000000</i>
   <v name="OFIELD_K">      0.00000000      0.00000000      0.00000000</v>
   <i name="OFIELD_Q6_NEAR">      0.00000000</i>
   <i name="OFIELD_Q6_FAR">      0.00000000</i>
   <i name="OFIELD_A">      0.00000000</i>
  </separator>
  <separator name="optional k-points parameters" >
   <i type="int" name="KPOINTS_OPT_MODE">     1</i>
   <i type="logical" name="LKPOINTS_OPT"> F  </i>
  </separator>
  <separator name="solvation model" >
   <i type="logical" name="LSOL"> F  </i>
  </separator>
 </parameters>
 <atominfo>
  <atoms>      64 </atoms>
  <types>       3 </types>
  <array name="atoms" >
   <dimension dim="1">ion</dimension>
   <field type="string">element</field>
   <field type="int">atomtype</field>
   <set>
    <rc><c>Fe</c><c>   1</c></rc>
    <rc><c>Fe</c><c>   1</c></rc>
    <rc><c>Fe</c><c>   1</c></rc>
    <rc><c>Fe</c><c>   1</c></rc>
    <rc><c>Fe</c><c>   1</c></rc>
    <rc><c>Fe</c><c>   1</c></rc>
    <rc><c>Fe</c><c>   1</c></rc>
    <rc><c>Fe</c><c>   1</c></rc>
    <rc><c>Fe</c><c>   1</c></rc>
    <rc><c>Fe</c><c>   1</c></rc>
    <rc><c>Fe</c><c>   1</c></rc>
    <rc><c>Fe</c><c>   1</c></rc>
    <rc><c>Fe</c><c>   1</c></rc>
    <rc><c>Fe</c><c>   1</c></rc>
    <rc><c>Fe</c><c>   1</c></rc>
    <rc><c>Fe</c><c>   1</c></rc>
    <rc><c>Fe</c><c>   1</c></rc>
    <rc><c>Fe</c><c>   1</c></rc>
    <rc><c>Fe</c><c>   1</c></rc>
    <rc><c>Fe</c><c>   1</c></rc>
    <rc><c>Fe</c><c>   1</c></rc>
    <rc><c>Fe</c><c>   1</c></rc>
    <rc><c>Fe</c><c>   1</c></rc>
    <rc><c>Fe</c><c>   1</c></rc>
    <rc><c>Fe</c><c>   1</c></rc>
    <rc><c>Fe</c><c>   1</c></rc>
    <rc><c>Fe</c><c>   1</c></rc>
    <rc><c>Fe</c><c>   1</c></rc>
    <rc><c>Fe</c><c>   1</c></rc>
    <rc><c>Fe</c><c>   1</c></rc>
    <rc><c>Fe</c><c>   1</c></rc>
    <rc><c>Fe</c><c>   1</c></rc>
    <rc><c>Fe</c><c>   1</c></rc>
    <rc><c>Fe</c><c>   1</c></rc>
    <rc><c>Fe</c><c>   1</c></rc>
    <rc><c>Fe</c><c>   1</c></rc>
    <rc><c>Fe</c><c>   1</c></rc>
    <rc><c>Fe</c><c>   1</c></rc>
    <rc><c>Fe</c><c>   1</c></rc>
    <rc><c>Fe</c><c>   1</c></rc>
    <rc><c>Fe</c><c>   1</c></rc>
    <rc><c>Fe</c><c>   1</c></rc>
    <rc><c>Fe</c><c>   1</c></rc>
    <rc><c>Fe</c><c>   1</c></rc>
    <rc><c>Fe</c><c>   1</c></rc>
    <rc><c>Fe</c><c>   1</c></rc>
    <rc><c>Fe</c><c>   1</c></rc>
    <rc><c>Fe</c><c>   1</c></rc>
    <rc><c>Fe</c><c>   1</c></rc>
    <rc><c>Cr</c><c>   2</c></rc>
    <rc><c>Cr</c><c>   2</c></rc>
    <rc><c>Cr</c><c>   2</c></rc>
    <rc><c>Cr</c><c>   2</c></rc>
    <rc><c>Cr</c><c>   2</c></rc>
    <rc><c>Cr</c><c>   2</c></rc>
    <rc><c>Cr</c><c>   2</c></rc>
    <rc><c>Cr</c><c>   2</c></rc>
    <rc><c>Cr</c><c>   2</c></rc>
    <rc><c>Cr</c><c>   2</c></rc>
    <rc><c>Cr</c><c>   2</c></rc>
    <rc><c>Cr</c><c>   2</c></rc>
    <rc><c>Cr</c><c>   2</c></rc>
    <rc><c>Cr</c><c>   2</c></rc>
    <rc><c>Pb</c><c>   3</c></rc>
   </set>
  </array>
  <array name="atomtypes" >
   <dimension dim="1">type</dimension>
   <field type="int">atomspertype</field>
   <field type="string">element</field>
   <field>mass</field>
   <field>valence</field>
   <field type="string">pseudopotential</field>
   <set>
    <rc><c>  49</c><c>Fe</c><c>     55.84700000</c><c>      8.00000000</c><c>  PAW_PBE Fe 06Sep2000                  </c></rc>
    <rc><c>  14</c><c>Cr</c><c>     51.99600000</c><c>     12.00000000</c><c>  PAW_PBE Cr_pv 02Aug2007               </c></rc>
    <rc><c>   1</c><c>Pb</c><c>    207.20000000</c><c>     14.00000000</c><c>  PAW_PBE Pb_d 06Sep2000                </c></rc>
   </set>
  </array>
 </atominfo>
 <structure name="initialpos" >
  <crystal>
   <varray name="basis" >
    <v>       8.53269958       0.00000000       0.00000000 </v>
    <v>      -0.00051933       8.49699972       0.00000000 </v>
    <v>       0.00000000       0.00000000      23.59499931 </v>
   </varray>
   <i name="volume">   1710.69280467 </i>
   <varray name="rec_basis" >
    <v>       0.11719620       0.00000716       0.00000000 </v>
    <v>       0.00000000       0.11768860       0.00000000 </v>
    <v>       0.00000000       0.00000000       0.04238186 </v>
   </varray>
  </crystal>
  <varray name="positions" >
   <v>       0.00086000       0.99993000       0.24271000 </v>
   <v>       0.16589957       0.16471079       0.30323101 </v>
   <v>       0.50544035       0.16970429       0.30604542 </v>
   <v>       0.66822000       0.00107000       0.24272000 </v>
   <v>       0.83417243       0.16743432       0.30394797 </v>
   <v>       0.00044000       0.33497000       0.24240000 </v>
   <v>       0.16685214       0.50206384       0.30400934 </v>
   <v>       0.33469000       0.33305000       0.24267000 </v>
   <v>       0.49980869       0.49742802       0.30372178 </v>
   <v>       0.83502648       0.50420770       0.30217990 </v>
   <v>       0.16863847       0.83457814       0.30501553 </v>
   <v>       0.33342000       0.66555000       0.24261000 </v>
   <v>       0.83648674       0.83311478       0.30363590 </v>
   <v>       0.00064000       0.00119000       0.00199000 </v>
   <v>       0.99637837       0.00459563       0.36160297 </v>
   <v>       0.16843000       0.16962000       0.06269000 </v>
   <v>       0.33460000       0.00297000       0.00254000 </v>
   <v>       0.33708720       0.00653675       0.36195768 </v>
   <v>       0.50463000       0.16850000       0.06120000 </v>
   <v>       0.83272000       0.16670000       0.06193000 </v>
   <v>       0.00004000       0.33467000       0.00213000 </v>
   <v>       0.99857738       0.33186373       0.36006574 </v>
   <v>       0.16757000       0.49895000       0.06268000 </v>
   <v>       0.50099000       0.49896000       0.06206000 </v>
   <v>       0.83393000       0.50234000       0.06235000 </v>
   <v>       0.00121000       0.66785000       0.00188000 </v>
   <v>       0.99786624       0.66609651       0.36044313 </v>
   <v>       0.16792000       0.83462000       0.06228000 </v>
   <v>       0.33437000       0.66664000       0.00225000 </v>
   <v>       0.34005745       0.66315868       0.36175193 </v>
   <v>       0.50152000       0.83563000       0.06217000 </v>
   <v>       0.66753000       0.66705000       0.00175000 </v>
   <v>       0.66339310       0.66459610       0.36034303 </v>
   <v>       0.83293000       0.83584000       0.06235000 </v>
   <v>       0.00121000       0.00098000       0.12225000 </v>
   <v>       0.16700000       0.16811000       0.18239000 </v>
   <v>       0.33470000       0.00227000       0.12192000 </v>
   <v>       0.50174000       0.16716000       0.18263000 </v>
   <v>       0.83421000       0.16639000       0.18283000 </v>
   <v>       0.16964000       0.49868000       0.18209000 </v>
   <v>       0.50219000       0.50081000       0.18317000 </v>
   <v>       0.66741000       0.33395000       0.12233000 </v>
   <v>       0.83134000       0.50253000       0.18283000 </v>
   <v>       0.00132000       0.66795000       0.12253000 </v>
   <v>       0.16898000       0.83509000       0.18243000 </v>
   <v>       0.33446000       0.66703000       0.12223000 </v>
   <v>       0.49971000       0.83538000       0.18278000 </v>
   <v>       0.66698000       0.66840000       0.12259000 </v>
   <v>       0.83488000       0.83403000       0.18294000 </v>
   <v>       0.33558000       0.99863000       0.24353000 </v>
   <v>       0.66801000       0.33262000       0.24229000 </v>
   <v>       0.00448000       0.66739000       0.24217000 </v>
   <v>       0.49661475       0.83343711       0.30116455 </v>
   <v>       0.66521000       0.67351000       0.24327000 </v>
   <v>       0.66620000       0.99680000       0.00000000 </v>
   <v>       0.66737432       0.98761411       0.36400103 </v>
   <v>       0.33213000       0.33386000       0.00135000 </v>
   <v>       0.32276710       0.33243764       0.36515367 </v>
   <v>       0.67040000       0.33673000       0.00321000 </v>
   <v>       0.67730008       0.34335154       0.36693267 </v>
   <v>       0.66728000       0.99998000       0.12246000 </v>
   <v>       0.99806000       0.33495000       0.12235000 </v>
   <v>       0.33675000       0.33238000       0.12261000 </v>
   <v>       0.16864000       0.83458000       0.42000000 </v>
  </varray>
  <varray name="selective"  type="logical" >
   <v type="logical" >  F  F  F </v>
   <v type="logical" >  T  T  T </v>
   <v type="logical" >  T  T  T </v>
   <v type="logical" >  F  F  F </v>
   <v type="logical" >  T  T  T </v>
   <v type="logical" >  F  F  F </v>
   <v type="logical" >  T  T  T </v>
   <v type="logical" >  F  F  F </v>
   <v type="logical" >  T  T  T </v>
   <v type="logical" >  T  T  T </v>
   <v type="logical" >  T  T  T </v>
   <v type="logical" >  F  F  F </v>
   <v type="logical" >  T  T  T </v>
   <v type="logical" >  F  F  F </v>
   <v type="logical" >  T  T  T </v>
   <v type="logical" >  F  F  F </v>
   <v type="logical" >  F  F  F </v>
   <v type="logical" >  T  T  T </v>
   <v type="logical" >  F  F  F </v>
   <v type="logical" >  F  F  F </v>
   <v type="logical" >  F  F  F </v>
   <v type="logical" >  T  T  T </v>
   <v type="logical" >  F  F  F </v>
   <v type="logical" >  F  F  F </v>
   <v type="logical" >  F  F  F </v>
   <v type="logical" >  F  F  F </v>
   <v type="logical" >  T  T  T </v>
   <v type="logical" >  F  F  F </v>
   <v type="logical" >  F  F  F </v>
   <v type="logical" >  T  T  T </v>
   <v type="logical" >  F  F  F </v>
   <v type="logical" >  F  F  F </v>
   <v type="logical" >  T  T  T </v>
   <v type="logical" >  F  F  F </v>
   <v type="logical" >  F  F  F </v>
   <v type="logical" >  F  F  F </v>
   <v type="logical" >  F  F  F </v>
   <v type="logical" >  F  F  F </v>
   <v type="logical" >  F  F  F </v>
   <v type="logical" >  F  F  F </v>
   <v type="logical" >  F  F  F </v>
   <v type="logical" >  F  F  F </v>
   <v type="logical" >  F  F  F </v>
   <v type="logical" >  F  F  F </v>
   <v type="logical" >  F  F  F </v>
   <v type="logical" >  F  F  F </v>
   <v type="logical" >  F  F  F </v>
   <v type="logical" >  F  F  F </v>
   <v type="logical" >  F  F  F </v>
   <v type="logical" >  F  F  F </v>
   <v type="logical" >  F  F  F </v>
   <v type="logical" >  F  F  F </v>
   <v type="logical" >  T  T  T </v>
   <v type="logical" >  F  F  F </v>
   <v type="logical" >  F  F  F </v>
   <v type="logical" >  T  T  T </v>
   <v type="logical" >  F  F  F </v>
   <v type="logical" >  T  T  T </v>
   <v type="logical" >  F  F  F </v>
   <v type="logical" >  T  T  T </v>
   <v type="logical" >  F  F  F </v>
   <v type="logical" >  F  F  F </v>
   <v type="logical" >  F  F  F </v>
   <v type="logical" >  T  T  T </v>
  </varray>
  <nose>
   <v>      -3.00000000       0.00000000       0.00010000       0.00010000 </v>
  </nose>
 </structure>
 <calculation>
  <scstep>
   <time name="dav">  125.44   18.09</time>
   <time name="total">  147.42   23.94</time>
   <dipole>
    <v name="dipole">      0.00000000       0.00000000      -0.00002122 </v>
    <i name="Tr[quadrupol]">  -7040.54382498 </i>
    <i name="Echarged">      0.00000000 </i>
    <i name="Edipol_quadrupol">      0.00000000 </i>
    <i name="Eion">      0.00000000 </i>
   </dipole>
   <energy>
    <i name="alphaZ">   1868.92989385 </i>
    <i name="ewald"> 212258.56213969 </i>
    <i name="hartreedc">-264118.35531342 </i>
    <i name="XCdc">   1000.14140921 </i>
    <i name="pawpsdc">  46919.87437312 </i>
    <i name="pawaedc"> -47958.31232237 </i>
    <i name="eentropy">     -0.00624234 </i>
    <i name="bandstr">   1889.09948964 </i>
    <i name="atom">  53853.58386974 </i>
    <i name="e_fr_energy">   5713.51729712 </i>
    <i name="e_wo_entrp">   5713.52353946 </i>
    <i name="e_0_energy">   5713.51937790 </i>
   </energy>
  </scstep>
  <scstep>
   <time name="dav">  119.69   17.22</time>
   <time name="total">  119.80   17.23</time>
   <dipole>
    <v name="dipole">      0.00000000       0.00000000      -0.00002122 </v>
    <i name="Tr[quadrupol]">  -7040.54382498 </i>
    <i name="Echarged">      0.00000000 </i>
    <i name="Edipol_quadrupol">      0.00000000 </i>
    <i name="Eion">      0.00000000 </i>
   </dipole>
   <energy>
    <i name="e_fr_energy">    -58.46919676 </i>
    <i name="e_wo_entrp">    -58.46241218 </i>
    <i name="e_0_energy">    -58.46693523 </i>
   </energy>
  </scstep>
  <scstep>
   <time name="dav">  123.45   17.69</time>
   <time name="total">  123.52   17.70</time>
   <dipole>
    <v name="dipole">      0.00000000       0.00000000      -0.00002122 </v>
    <i name="Tr[quadrupol]">  -7040.54382498 </i>
    <i name="Echarged">      0.00000000 </i>
    <i name="Edipol_quadrupol">      0.00000000 </i>
    <i name="Eion">      0.00000000 </i>
   </dipole>
   <energy>
    <i name="e_fr_energy">   -530.24742528 </i>
    <i name="e_wo_entrp">   -530.25030775 </i>
    <i name="e_0_energy">   -530.24838610 </i>
   </energy>
  </scstep>
  <scstep>
   <time name="dav">  188.77   27.20</time>
   <time name="total">  188.84   27.20</time>
   <dipole>
    <v name="dipole">      0.00000000       0.00000000      -0.00002122 </v>
    <i name="Tr[quadrupol]">  -7040.54382498 </i>
    <i name="Echarged">      0.00000000 </i>
    <i name="Edipol_quadrupol">      0.00000000 </i>
    <i name="Eion">      0.00000000 </i>
   </dipole>
   <energy>
    <i name="e_fr_energy">   -589.90388144 </i>
    <i name="e_wo_entrp">   -589.91528081 </i>
    <i name="e_0_energy">   -589.90768123 </i>
   </energy>
  </scstep>
  <scstep>
   <time name="dav">  177.09   25.41</time>
   <time name="total">  181.45   26.38</time>
   <dipole>
    <v name="dipole">      0.00000000       0.00000000      -0.00002122 </v>
    <i name="Tr[quadrupol]">  -7040.54382498 </i>
    <i name="Echarged">      0.00000000 </i>
    <i name="Edipol_quadrupol">      0.00000000 </i>
    <i name="Eion">      0.00000000 </i>
   </dipole>
   <energy>
    <i name="e_fr_energy">   -593.11450444 </i>
    <i name="e_wo_entrp">   -593.12965561 </i>
    <i name="e_0_energy">   -593.11955483 </i>
   </energy>
  </scstep>
  <scstep>
   <time name="dav">  192.34   27.62</time>
   <time name="total">  218.50   34.39</time>
   <dipole>
    <v name="dipole">      0.00000000       0.00000000       2.34217673 </v>
    <i name="Tr[quadrupol]">  -7062.23828328 </i>
    <i name="Echarged">      0.00000000 </i>
    <i name="Edipol_quadrupol">      0.00000000 </i>
    <i name="Eion">      0.00000000 </i>
   </dipole>
   <energy>
    <i name="e_fr_energy">   -798.23687667 </i>
    <i name="e_wo_entrp">   -798.26483699 </i>
    <i name="e_0_energy">   -798.24619678 </i>
   </energy>
  </scstep>
  <scstep>
   <time name="dav">  199.56   28.64</time>
   <time name="total">  225.93   35.38</time>
   <dipole>
    <v name="dipole">      0.00000000       0.00000000      -1.39287594 </v>
    <i name="Tr[quadrupol]">  -7056.11005457 </i>
    <i name="Echarged">      0.00000000 </i>
    <i name="Edipol_quadrupol">      0.00000000 </i>
    <i name="Eion">      0.00000000 </i>
   </dipole>
   <energy>
    <i name="e_fr_energy">   -687.31248972 </i>
    <i name="e_wo_entrp">   -687.33526178 </i>
    <i name="e_0_energy">   -687.32008041 </i>
   </energy>
  </scstep>
  <scstep>
   <time name="dav">  193.32   27.79</time>
   <time name="total">  219.49   34.48</time>
   <dipole>
    <v name="dipole">      0.00000000       0.00000000       0.51997615 </v>
    <i name="Tr[quadrupol]">  -7049.71296447 </i>
    <i name="Echarged">      0.00000000 </i>
    <i name="Edipol_quadrupol">      0.00000000 </i>
    <i name="Eion">      0.00000000 </i>
   </dipole>
   <energy>
    <i name="e_fr_energy">   -557.41888730 </i>
    <i name="e_wo_entrp">   -557.40483659 </i>
    <i name="e_0_energy">   -557.41420373 </i>
   </energy>
  </scstep>
  <scstep>
   <time name="dav">  182.93   26.37</time>
   <time name="total">  208.16   33.06</time>
   <dipole>
    <v name="dipole">      0.00000000       0.00000000      -0.03330046 </v>
    <i name="Tr[quadrupol]">  -7047.68512083 </i>
    <i name="Echarged">      0.00000000 </i>
    <i name="Edipol_quadrupol">      0.00000000 </i>
    <i name="Eion">      0.00000000 </i>
   </dipole>
   <energy>
    <i name="e_fr_energy">   -542.48739764 </i>
    <i name="e_wo_entrp">   -542.52322009 </i>
    <i name="e_0_energy">   -542.49933846 </i>
   </energy>
  </scstep>
  <scstep>
   <time name="dav">  176.01   25.34</time>
   <time name="total">  202.25   32.06</time>
   <dipole>
    <v name="dipole">      0.00000000       0.00000000       0.20665415 </v>
    <i name="Tr[quadrupol]">  -7049.11864499 </i>
    <i name="Echarged">      0.00000000 </i>
    <i name="Edipol_quadrupol">      0.00000000 </i>
    <i name="Eion">      0.00000000 </i>
   </dipole>
   <energy>
    <i name="e_fr_energy">   -525.73470468 </i>
    <i name="e_wo_entrp">   -525.70799869 </i>
    <i name="e_0_energy">   -525.72580269 </i>
   </energy>
  </scstep>
  <scstep>
   <time name="dav">  166.56   24.01</time>
   <time name="total">  192.04   30.75</time>
   <dipole>
    <v name="dipole">      0.00000000       0.00000000      -0.00580485 </v>
    <i name="Tr[quadrupol]">  -7056.94331054 </i>
    <i name="Echarged">      0.00000000 </i>
    <i name="Edipol_quadrupol">      0.00000000 </i>
    <i name="Eion">      0.00000000 </i>
   </dipole>
   <energy>
    <i name="e_fr_energy">   -504.43188003 </i>
    <i name="e_wo_entrp">   -504.46070788 </i>
    <i name="e_0_energy">   -504.44148932 </i>
   </energy>
  </scstep>
  <scstep>
   <time name="dav">  152.16   22.01</time>
   <time name="total">  177.69   28.75</time>
   <dipole>
    <v name="dipole">      0.00000000       0.00000000       0.06129391 </v>
    <i name="Tr[quadrupol]">  -7062.20231243 </i>
    <i name="Echarged">      0.00000000 </i>
    <i name="Edipol_quadrupol">      0.00000000 </i>
    <i name="Eion">      0.00000000 </i>
   </dipole>
   <energy>
    <i name="e_fr_energy">   -500.87067638 </i>
    <i name="e_wo_entrp">   -500.90567518 </i>
    <i name="e_0_energy">   -500.88234264 </i>
   </energy>
  </scstep>
  <scstep>
   <time name="dav">  162.06   23.31</time>
   <time name="total">  188.61   30.09</time>
   <dipole>
    <v name="dipole">      0.00000000       0.00000000       0.06776376 </v>
    <i name="Tr[quadrupol]">  -7062.84890739 </i>
    <i name="Echarged">      0.00000000 </i>
    <i name="Edipol_quadrupol">      0.00000000 </i>
    <i name="Eion">      0.00000000 </i>
   </dipole>
   <energy>
    <i name="e_fr_energy">   -501.02769939 </i>
    <i name="e_wo_entrp">   -501.05626581 </i>
    <i name="e_0_energy">   -501.03722153 </i>
   </energy>
  </scstep>
  <scstep>
   <time name="dav">  170.10   24.50</time>
   <time name="total">  196.43   31.24</time>
   <dipole>
    <v name="dipole">      0.00000000       0.00000000       0.07367591 </v>
    <i name="Tr[quadrupol]">  -7062.78235387 </i>
    <i name="Echarged">      0.00000000 </i>
    <i name="Edipol_quadrupol">      0.00000000 </i>
    <i name="Eion">      0.00000000 </i>
   </dipole>
   <energy>
    <i name="e_fr_energy">   -500.99706750 </i>
    <i name="e_wo_entrp">   -501.02565131 </i>
    <i name="e_0_energy">   -501.00659544 </i>
   </energy>
  </scstep>
  <scstep>
   <time name="dav">  191.55   27.60</time>
   <time name="total">  217.92   34.35</time>
   <dipole>
    <v name="dipole">      0.00000000       0.00000000       0.12953276 </v>
    <i name="Tr[quadrupol]">  -7063.41251311 </i>
    <i name="Echarged">      0.00000000 </i>
    <i name="Edipol_quadrupol">      0.00000000 </i>
    <i name="Eion">      0.00000000 </i>
   </dipole>
   <energy>
    <i name="e_fr_energy">   -501.62043988 </i>
    <i name="e_wo_entrp">   -501.64433403 </i>
    <i name="e_0_energy">   -501.62840460 </i>
   </energy>
  </scstep>
  <scstep>
   <time name="dav">  184.32   26.71</time>
   <time name="total">  209.97   33.48</time>
   <dipole>
    <v name="dipole">      0.00000000       0.00000000       0.05258402 </v>
    <i name="Tr[quadrupol]">  -7065.14879925 </i>
    <i name="Echarged">      0.00000000 </i>
    <i name="Edipol_quadrupol">      0.00000000 </i>
    <i name="Eion">      0.00000000 </i>
   </dipole>
   <energy>
    <i name="e_fr_energy">   -503.01519333 </i>
    <i name="e_wo_entrp">   -503.01890618 </i>
    <i name="e_0_energy">   -503.01643095 </i>
   </energy>
  </scstep>
  <scstep>
   <time name="dav">  177.46   25.49</time>
   <time name="total">  203.94   32.25</time>
   <dipole>
    <v name="dipole">      0.00000000       0.00000000       0.15162911 </v>
    <i name="Tr[quadrupol]">  -7068.94059157 </i>
    <i name="Echarged">      0.00000000 </i>
    <i name="Edipol_quadrupol">      0.00000000 </i>
    <i name="Eion">      0.00000000 </i>
   </dipole>
   <energy>
    <i name="e_fr_energy">   -506.49445178 </i>
    <i name="e_wo_entrp">   -506.45822831 </i>
    <i name="e_0_energy">   -506.48237729 </i>
   </energy>
  </scstep>
  <scstep>
   <time name="dav">  179.19   25.73</time>
   <time name="total">  205.24   32.54</time>
   <dipole>
    <v name="dipole">      0.00000000       0.00000000       0.08198588 </v>
    <i name="Tr[quadrupol]">  -7071.10539455 </i>
    <i name="Echarged">      0.00000000 </i>
    <i name="Edipol_quadrupol">      0.00000000 </i>
    <i name="Eion">      0.00000000 </i>
   </dipole>
   <energy>
    <i name="e_fr_energy">   -508.76652038 </i>
    <i name="e_wo_entrp">   -508.76532464 </i>
    <i name="e_0_energy">   -508.76612180 </i>
   </energy>
  </scstep>
  <scstep>
   <time name="dav">  175.28   25.30</time>
   <time name="total">  201.22   32.08</time>
   <dipole>
    <v name="dipole">      0.00000000       0.00000000       0.09859364 </v>
    <i name="Tr[quadrupol]">  -7071.94688976 </i>
    <i name="Echarged">      0.00000000 </i>
    <i name="Edipol_quadrupol">      0.00000000 </i>
    <i name="Eion">      0.00000000 </i>
   </dipole>
   <energy>
    <i name="e_fr_energy">   -509.36729251 </i>
    <i name="e_wo_entrp">   -509.36869706 </i>
    <i name="e_0_energy">   -509.36776069 </i>
   </energy>
  </scstep>
  <scstep>
   <time name="dav">  184.10   26.50</time>
   <time name="total">  210.86   33.32</time>
   <dipole>
    <v name="dipole">      0.00000000       0.00000000       0.09730498 </v>
    <i name="Tr[quadrupol]">  -7071.89135212 </i>
    <i name="Echarged">      0.00000000 </i>
    <i name="Edipol_quadrupol">      0.00000000 </i>
    <i name="Eion">      0.00000000 </i>
   </dipole>
   <energy>
    <i name="e_fr_energy">   -509.72857361 </i>
    <i name="e_wo_entrp">   -509.74010415 </i>
    <i name="e_0_energy">   -509.73241713 </i>
   </energy>
  </scstep>
  <scstep>
   <time name="dav">  186.33   26.81</time>
   <time name="total">  212.89   33.60</time>
   <dipole>
    <v name="dipole">      0.00000000       0.00000000       0.12392390 </v>
    <i name="Tr[quadrupol]">  -7071.34883870 </i>
    <i name="Echarged">      0.00000000 </i>
    <i name="Edipol_quadrupol">      0.00000000 </i>
    <i name="Eion">      0.00000000 </i>
   </dipole>
   <energy>
    <i name="e_fr_energy">   -510.05908332 </i>
    <i name="e_wo_entrp">   -510.08634687 </i>
    <i name="e_0_energy">   -510.06817117 </i>
   </energy>
  </scstep>
  <scstep>
   <time name="dav">  179.32   25.77</time>
   <time name="total">  206.00   32.53</time>
   <dipole>
    <v name="dipole">      0.00000000       0.00000000       0.11183249 </v>
    <i name="Tr[quadrupol]">  -7070.96940981 </i>
    <i name="Echarged">      0.00000000 </i>
    <i name="Edipol_quadrupol">      0.00000000 </i>
    <i name="Eion">      0.00000000 </i>
   </dipole>
   <energy>
    <i name="e_fr_energy">   -510.19130360 </i>
    <i name="e_wo_entrp">   -510.22839487 </i>
    <i name="e_0_energy">   -510.20366735 </i>
   </energy>
  </scstep>
  <scstep>
   <time name="dav">  182.60   26.26</time>
   <time name="total">  209.38   33.08</time>
   <dipole>
    <v name="dipole">      0.00000000       0.00000000       0.12719545 </v>
    <i name="Tr[quadrupol]">  -7071.00885406 </i>
    <i name="Echarged">      0.00000000 </i>
    <i name="Edipol_quadrupol">      0.00000000 </i>
    <i name="Eion">      0.00000000 </i>
   </dipole>
   <energy>
    <i name="e_fr_energy">   -510.32197221 </i>
    <i name="e_wo_entrp">   -510.35980240 </i>
    <i name="e_0_energy">   -510.33458227 </i>
   </energy>
  </scstep>
  <scstep>
   <time name="dav">  178.98   25.69</time>
   <time name="total">  205.79   32.49</time>
   <dipole>
    <v name="dipole">      0.00000000       0.00000000       0.13370028 </v>
    <i name="Tr[quadrupol]">  -7071.13963114 </i>
    <i name="Echarged">      0.00000000 </i>
    <i name="Edipol_quadrupol">      0.00000000 </i>
    <i name="Eion">      0.00000000 </i>
   </dipole>
   <energy>
    <i name="e_fr_energy">   -510.45877899 </i>
    <i name="e_wo_entrp">   -510.49927100 </i>
    <i name="e_0_energy">   -510.47227632 </i>
   </energy>
  </scstep>
  <scstep>
   <time name="dav">  191.35   27.45</time>
   <time name="total">  218.31   34.27</time>
   <dipole>
    <v name="dipole">      0.00000000       0.00000000       0.11006022 </v>
    <i name="Tr[quadrupol]">  -7071.07493144 </i>
    <i name="Echarged">      0.00000000 </i>
    <i name="Edipol_quadrupol">      0.00000000 </i>
    <i name="Eion">      0.00000000 </i>
   </dipole>
   <energy>
    <i name="e_fr_energy">   -510.74919949 </i>
    <i name="e_wo_entrp">   -510.78993516 </i>
    <i name="e_0_energy">   -510.76277805 </i>
   </energy>
  </scstep>
  <scstep>
   <time name="dav">  186.34   26.85</time>
   <time name="total">  213.39   33.72</time>
   <dipole>
    <v name="dipole">      0.00000000       0.00000000       0.10590359 </v>
    <i name="Tr[quadrupol]">  -7070.71104834 </i>
    <i name="Echarged">      0.00000000 </i>
    <i name="Edipol_quadrupol">      0.00000000 </i>
    <i name="Eion">      0.00000000 </i>
   </dipole>
   <energy>
    <i name="e_fr_energy">   -511.21613738 </i>
    <i name="e_wo_entrp">   -511.24531703 </i>
    <i name="e_0_energy">   -511.22586393 </i>
   </energy>
  </scstep>
  <scstep>
   <time name="dav">  188.20   27.10</time>
   <time name="total">  215.29   33.96</time>
   <dipole>
    <v name="dipole">      0.00000000       0.00000000       0.07915717 </v>
    <i name="Tr[quadrupol]">  -7070.72927742 </i>
    <i name="Echarged">      0.00000000 </i>
    <i name="Edipol_quadrupol">      0.00000000 </i>
    <i name="Eion">      0.00000000 </i>
   </dipole>
   <energy>
    <i name="e_fr_energy">   -511.61809327 </i>
    <i name="e_wo_entrp">   -511.63468750 </i>
    <i name="e_0_energy">   -511.62362468 </i>
   </energy>
  </scstep>
  <scstep>
   <time name="dav">  182.56   26.32</time>
   <time name="total">  209.19   33.22</time>
   <dipole>
    <v name="dipole">      0.00000000       0.00000000       0.09778855 </v>
    <i name="Tr[quadrupol]">  -7070.92097447 </i>
    <i name="Echarged">      0.00000000 </i>
    <i name="Edipol_quadrupol">      0.00000000 </i>
    <i name="Eion">      0.00000000 </i>
   </dipole>
   <energy>
    <i name="e_fr_energy">   -511.81435334 </i>
    <i name="e_wo_entrp">   -511.82677464 </i>
    <i name="e_0_energy">   -511.81849377 </i>
   </energy>
  </scstep>
  <scstep>
   <time name="dav">  186.48   26.81</time>
   <time name="total">  213.21   33.70</time>
   <dipole>
    <v name="dipole">      0.00000000       0.00000000       0.08655622 </v>
    <i name="Tr[quadrupol]">  -7071.10757532 </i>
    <i name="Echarged">      0.00000000 </i>
    <i name="Edipol_quadrupol">      0.00000000 </i>
    <i name="Eion">      0.00000000 </i>
   </dipole>
   <energy>
    <i name="e_fr_energy">   -512.02918871 </i>
    <i name="e_wo_entrp">   -512.04464249 </i>
    <i name="e_0_energy">   -512.03433997 </i>
   </energy>
  </scstep>
  <scstep>
   <time name="dav">  180.04   26.00</time>
   <time name="total">  206.80   32.88</time>
   <dipole>
    <v name="dipole">      0.00000000       0.00000000       0.09896716 </v>
    <i name="Tr[quadrupol]">  -7071.06845456 </i>
    <i name="Echarged">      0.00000000 </i>
    <i name="Edipol_quadrupol">      0.00000000 </i>
    <i name="Eion">      0.00000000 </i>
   </dipole>
   <energy>
    <i name="e_fr_energy">   -512.05944048 </i>
    <i name="e_wo_entrp">   -512.07495506 </i>
    <i name="e_0_energy">   -512.06461201 </i>
   </energy>
  </scstep>
  <scstep>
   <time name="dav">  173.26   24.95</time>
   <time name="total">  200.83   31.87</time>
   <dipole>
    <v name="dipole">      0.00000000       0.00000000       0.09526222 </v>
    <i name="Tr[quadrupol]">  -7071.00945979 </i>
    <i name="Echarged">      0.00000000 </i>
    <i name="Edipol_quadrupol">      0.00000000 </i>
    <i name="Eion">      0.00000000 </i>
   </dipole>
   <energy>
    <i name="e_fr_energy">   -512.06701264 </i>
    <i name="e_wo_entrp">   -512.08209903 </i>
    <i name="e_0_energy">   -512.07204144 </i>
   </energy>
  </scstep>
  <scstep>
   <time name="dav">  181.61   26.17</time>
   <time name="total">  208.93   33.09</time>
   <dipole>
    <v name="dipole">      0.00000000       0.00000000       0.10071666 </v>
    <i name="Tr[quadrupol]">  -7070.96178668 </i>
    <i name="Echarged">      0.00000000 </i>
    <i name="Edipol_quadrupol">      0.00000000 </i>
    <i name="Eion">      0.00000000 </i>
   </dipole>
   <energy>
    <i name="e_fr_energy">   -512.10379298 </i>
    <i name="e_wo_entrp">   -512.11905594 </i>
    <i name="e_0_energy">   -512.10888064 </i>
   </energy>
  </scstep>
  <scstep>
   <time name="dav">  175.42   25.22</time>
   <time name="total">  202.83   32.17</time>
   <dipole>
    <v name="dipole">      0.00000000       0.00000000       0.10236936 </v>
    <i name="Tr[quadrupol]">  -7070.97873327 </i>
    <i name="Echarged">      0.00000000 </i>
    <i name="Edipol_quadrupol">      0.00000000 </i>
    <i name="Eion">      0.00000000 </i>
   </dipole>
   <energy>
    <i name="e_fr_energy">   -512.13099576 </i>
    <i name="e_wo_entrp">   -512.14645119 </i>
    <i name="e_0_energy">   -512.13614757 </i>
   </energy>
  </scstep>
  <scstep>
   <time name="dav">  191.52   27.54</time>
   <time name="total">  217.92   34.51</time>
   <dipole>
    <v name="dipole">      0.00000000       0.00000000       0.09887291 </v>
    <i name="Tr[quadrupol]">  -7071.05544895 </i>
    <i name="Echarged">      0.00000000 </i>
    <i name="Edipol_quadrupol">      0.00000000 </i>
    <i name="Eion">      0.00000000 </i>
   </dipole>
   <energy>
    <i name="e_fr_energy">   -512.18448064 </i>
    <i name="e_wo_entrp">   -512.20001980 </i>
    <i name="e_0_energy">   -512.18966036 </i>
   </energy>
  </scstep>
  <scstep>
   <time name="dav">  184.48   26.54</time>
   <time name="total">  212.10   33.60</time>
   <dipole>
    <v name="dipole">      0.00000000       0.00000000       0.10396953 </v>
    <i name="Tr[quadrupol]">  -7070.94188503 </i>
    <i name="Echarged">      0.00000000 </i>
    <i name="Edipol_quadrupol">      0.00000000 </i>
    <i name="Eion">      0.00000000 </i>
   </dipole>
   <energy>
    <i name="e_fr_energy">   -512.31235461 </i>
    <i name="e_wo_entrp">   -512.33017676 </i>
    <i name="e_0_energy">   -512.31829532 </i>
   </energy>
  </scstep>
  <scstep>
   <time name="dav">  177.43   25.58</time>
   <time name="total">  204.89   32.54</time>
   <dipole>
    <v name="dipole">      0.00000000       0.00000000       0.10560138 </v>
    <i name="Tr[quadrupol]">  -7070.73172292 </i>
    <i name="Echarged">      0.00000000 </i>
    <i name="Edipol_quadrupol">      0.00000000 </i>
    <i name="Eion">      0.00000000 </i>
   </dipole>
   <energy>
    <i name="e_fr_energy">   -512.42190858 </i>
    <i name="e_wo_entrp">   -512.44116361 </i>
    <i name="e_0_energy">   -512.42832692 </i>
   </energy>
  </scstep>
  <scstep>
   <time name="dav">  176.30   25.62</time>
   <time name="total">  203.05   32.62</time>
   <dipole>
    <v name="dipole">      0.00000000       0.00000000       0.11432916 </v>
    <i name="Tr[quadrupol]">  -7070.88633969 </i>
    <i name="Echarged">      0.00000000 </i>
    <i name="Edipol_quadrupol">      0.00000000 </i>
    <i name="Eion">      0.00000000 </i>
   </dipole>
   <energy>
    <i name="e_fr_energy">   -512.43866752 </i>
    <i name="e_wo_entrp">   -512.45587040 </i>
    <i name="e_0_energy">   -512.44440182 </i>
   </energy>
  </scstep>
  <scstep>
   <time name="dav">  171.49   24.63</time>
   <time name="total">  198.95   31.60</time>
   <dipole>
    <v name="dipole">      0.00000000       0.00000000       0.11383795 </v>
    <i name="Tr[quadrupol]">  -7070.95660554 </i>
    <i name="Echarged">      0.00000000 </i>
    <i name="Edipol_quadrupol">      0.00000000 </i>
    <i name="Eion">      0.00000000 </i>
   </dipole>
   <energy>
    <i name="e_fr_energy">   -512.43685821 </i>
    <i name="e_wo_entrp">   -512.45434174 </i>
    <i name="e_0_energy">   -512.44268606 </i>
   </energy>
  </scstep>
  <scstep>
   <time name="dav">  175.12   25.19</time>
   <time name="total">  202.70   32.23</time>
   <dipole>
    <v name="dipole">      0.00000000       0.00000000       0.11648088 </v>
    <i name="Tr[quadrupol]">  -7070.97693873 </i>
    <i name="Echarged">      0.00000000 </i>
    <i name="Edipol_quadrupol">      0.00000000 </i>
    <i name="Eion">      0.00000000 </i>
   </dipole>
   <energy>
    <i name="e_fr_energy">   -512.43656386 </i>
    <i name="e_wo_entrp">   -512.45424078 </i>
    <i name="e_0_energy">   -512.44245616 </i>
   </energy>
  </scstep>
  <scstep>
   <time name="dav">  176.57   25.41</time>
   <time name="total">  203.97   32.39</time>
   <dipole>
    <v name="dipole">      0.00000000       0.00000000       0.11209867 </v>
    <i name="Tr[quadrupol]">  -7070.81992655 </i>
    <i name="Echarged">      0.00000000 </i>
    <i name="Edipol_quadrupol">      0.00000000 </i>
    <i name="Eion">      0.00000000 </i>
   </dipole>
   <energy>
    <i name="e_fr_energy">   -512.43604502 </i>
    <i name="e_wo_entrp">   -512.45416364 </i>
    <i name="e_0_energy">   -512.44208456 </i>
   </energy>
  </scstep>
  <scstep>
   <time name="dav">  183.66   26.47</time>
   <time name="total">  210.69   33.45</time>
   <dipole>
    <v name="dipole">      0.00000000       0.00000000       0.11384544 </v>
    <i name="Tr[quadrupol]">  -7070.79276902 </i>
    <i name="Echarged">      0.00000000 </i>
    <i name="Edipol_quadrupol">      0.00000000 </i>
    <i name="Eion">      0.00000000 </i>
   </dipole>
   <energy>
    <i name="e_fr_energy">   -512.43867906 </i>
    <i name="e_wo_entrp">   -512.45695425 </i>
    <i name="e_0_energy">   -512.44477079 </i>
   </energy>
  </scstep>
  <scstep>
   <time name="dav">  170.02   24.69</time>
   <time name="total">  196.74   31.71</time>
   <dipole>
    <v name="dipole">      0.00000000       0.00000000       0.11263549 </v>
    <i name="Tr[quadrupol]">  -7070.81669831 </i>
    <i name="Echarged">      0.00000000 </i>
    <i name="Edipol_quadrupol">      0.00000000 </i>
    <i name="Eion">      0.00000000 </i>
   </dipole>
   <energy>
    <i name="e_fr_energy">   -512.44096957 </i>
    <i name="e_wo_entrp">   -512.45917868 </i>
    <i name="e_0_energy">   -512.44703927 </i>
   </energy>
  </scstep>
  <scstep>
   <time name="dav">  185.55   26.66</time>
   <time name="total">  213.12   33.68</time>
   <dipole>
    <v name="dipole">      0.00000000       0.00000000       0.11550068 </v>
    <i name="Tr[quadrupol]">  -7070.81410468 </i>
    <i name="Echarged">      0.00000000 </i>
    <i name="Edipol_quadrupol">      0.00000000 </i>
    <i name="Eion">      0.00000000 </i>
   </dipole>
   <energy>
    <i name="e_fr_energy">   -512.44331446 </i>
    <i name="e_wo_entrp">   -512.46229429 </i>
    <i name="e_0_energy">   -512.44964107 </i>
   </energy>
  </scstep>
  <scstep>
   <time name="dav">  172.56   24.79</time>
   <time name="total">  200.22   31.89</time>
   <dipole>
    <v name="dipole">      0.00000000       0.00000000       0.11517915 </v>
    <i name="Tr[quadrupol]">  -7070.79795264 </i>
    <i name="Echarged">      0.00000000 </i>
    <i name="Edipol_quadrupol">      0.00000000 </i>
    <i name="Eion">      0.00000000 </i>
   </dipole>
   <energy>
    <i name="e_fr_energy">   -512.44434215 </i>
    <i name="e_wo_entrp">   -512.46328511 </i>
    <i name="e_0_energy">   -512.45065647 </i>
   </energy>
  </scstep>
  <scstep>
   <time name="dav">  178.29   25.64</time>
   <time name="total">  205.43   32.76</time>
   <dipole>
    <v name="dipole">      0.00000000       0.00000000       0.11335768 </v>
    <i name="Tr[quadrupol]">  -7070.76249256 </i>
    <i name="Echarged">      0.00000000 </i>
    <i name="Edipol_quadrupol">      0.00000000 </i>
    <i name="Eion">      0.00000000 </i>
   </dipole>
   <energy>
    <i name="e_fr_energy">   -512.44456860 </i>
    <i name="e_wo_entrp">   -512.46311476 </i>
    <i name="e_0_energy">   -512.45075066 </i>
   </energy>
  </scstep>
  <scstep>
   <time name="dav">  180.07   25.80</time>
   <time name="total">  207.57   32.92</time>
   <dipole>
    <v name="dipole">      0.00000000       0.00000000       0.11312357 </v>
    <i name="Tr[quadrupol]">  -7070.72287903 </i>
    <i name="Echarged">      0.00000000 </i>
    <i name="Edipol_quadrupol">      0.00000000 </i>
    <i name="Eion">      0.00000000 </i>
   </dipole>
   <energy>
    <i name="e_fr_energy">   -512.44445875 </i>
    <i name="e_wo_entrp">   -512.46313323 </i>
    <i name="e_0_energy">   -512.45068358 </i>
   </energy>
  </scstep>
  <scstep>
   <time name="dav">  182.39   26.17</time>
   <time name="total">  209.74   33.29</time>
   <dipole>
    <v name="dipole">      0.00000000       0.00000000       0.11356818 </v>
    <i name="Tr[quadrupol]">  -7070.73835162 </i>
    <i name="Echarged">      0.00000000 </i>
    <i name="Edipol_quadrupol">      0.00000000 </i>
    <i name="Eion">      0.00000000 </i>
   </dipole>
   <energy>
    <i name="e_fr_energy">   -512.44465862 </i>
    <i name="e_wo_entrp">   -512.46301036 </i>
    <i name="e_0_energy">   -512.45077587 </i>
   </energy>
  </scstep>
  <scstep>
   <time name="dav">  175.32   25.27</time>
   <time name="total">  203.18   32.46</time>
   <dipole>
    <v name="dipole">      0.00000000       0.00000000       0.11391242 </v>
    <i name="Tr[quadrupol]">  -7070.74639548 </i>
    <i name="Echarged">      0.00000000 </i>
    <i name="Edipol_quadrupol">      0.00000000 </i>
    <i name="Eion">      0.00000000 </i>
   </dipole>
   <energy>
    <i name="e_fr_energy">   -512.44477173 </i>
    <i name="e_wo_entrp">   -512.46307191 </i>
    <i name="e_0_energy">   -512.45087179 </i>
   </energy>
  </scstep>
  <scstep>
   <time name="dav">  177.11   25.46</time>
   <time name="total">  204.50   32.63</time>
   <dipole>
    <v name="dipole">      0.00000000       0.00000000       0.11323527 </v>
    <i name="Tr[quadrupol]">  -7070.75942191 </i>
    <i name="Echarged">      0.00000000 </i>
    <i name="Edipol_quadrupol">      0.00000000 </i>
    <i name="Eion">      0.00000000 </i>
   </dipole>
   <energy>
    <i name="e_fr_energy">   -512.44485568 </i>
    <i name="e_wo_entrp">   -512.46295722 </i>
    <i name="e_0_energy">   -512.45088952 </i>
   </energy>
  </scstep>
  <scstep>
   <time name="dav">  181.96   26.24</time>
   <time name="total">  209.20   33.40</time>
   <dipole>
    <v name="dipole">      0.00000000       0.00000000       0.11320838 </v>
    <i name="Tr[quadrupol]">  -7070.77572716 </i>
    <i name="Echarged">      0.00000000 </i>
    <i name="Edipol_quadrupol">      0.00000000 </i>
    <i name="Eion">      0.00000000 </i>
   </dipole>
   <energy>
    <i name="e_fr_energy">   -512.44495348 </i>
    <i name="e_wo_entrp">   -512.46301317 </i>
    <i name="e_0_energy">   -512.45097338 </i>
   </energy>
  </scstep>
  <scstep>
   <time name="dav">  164.30   23.78</time>
   <time name="total">  191.51   30.85</time>
   <dipole>
    <v name="dipole">      0.00000000       0.00000000       0.11252044 </v>
    <i name="Tr[quadrupol]">  -7070.77409443 </i>
    <i name="Echarged">      0.00000000 </i>
    <i name="Edipol_quadrupol">      0.00000000 </i>
    <i name="Eion">      0.00000000 </i>
   </dipole>
   <energy>
    <i name="e_fr_energy">   -512.44499812 </i>
    <i name="e_wo_entrp">   -512.46299540 </i>
    <i name="e_0_energy">   -512.45099722 </i>
   </energy>
  </scstep>
  <scstep>
   <time name="dav">  123.91   20.17</time>
   <time name="total">  151.71   27.32</time>
   <dipole>
    <v name="dipole">      0.00000000       0.00000000       0.11257046 </v>
    <i name="Tr[quadrupol]">  -7070.77504863 </i>
    <i name="Echarged">      0.00000000 </i>
    <i name="Edipol_quadrupol">      0.00000000 </i>
    <i name="Eion">      0.00000000 </i>
   </dipole>
   <energy>
    <i name="e_fr_energy">   -512.44502119 </i>
    <i name="e_wo_entrp">   -512.46307418 </i>
    <i name="e_0_energy">   -512.45103885 </i>
   </energy>
  </scstep>
  <scstep>
   <time name="dav">  148.40   21.77</time>
   <time name="total">  175.73   28.92</time>
   <dipole>
    <v name="dipole">      0.00000000       0.00000000       0.11250948 </v>
    <i name="Tr[quadrupol]">  -7070.76825872 </i>
    <i name="Echarged">      0.00000000 </i>
    <i name="Edipol_quadrupol">      0.00000000 </i>
    <i name="Eion">      0.00000000 </i>
   </dipole>
   <energy>
    <i name="e_fr_energy">   -512.44503325 </i>
    <i name="e_wo_entrp">   -512.46306750 </i>
    <i name="e_0_energy">   -512.45104467 </i>
   </energy>
  </scstep>
  <scstep>
   <time name="dav">   61.07   14.02</time>
   <time name="total">   83.12   19.83</time>
   <dipole>
    <v name="dipole">      0.00000000       0.00000000       0.11254256 </v>
    <i name="Tr[quadrupol]">  -7070.78154015 </i>
    <i name="Echarged">      0.00000000 </i>
    <i name="Edipol_quadrupol">      0.00000000 </i>
    <i name="Eion">      0.00000000 </i>
   </dipole>
   <energy>
    <i name="alphaZ">   1869.06353132 </i>
    <i name="ewald"> 212258.56213969 </i>
    <i name="hartreedc">-264006.07586011 </i>
    <i name="XCdc">   1004.78974255 </i>
    <i name="pawpsdc">  56310.49934927 </i>
    <i name="pawaedc"> -57444.08267673 </i>
    <i name="eentropy">      0.01800606 </i>
    <i name="bandstr">  -4358.80313975 </i>
    <i name="atom">  53853.58386974 </i>
    <i name="e_fr_energy">   -512.44503796 </i>
    <i name="e_wo_entrp">   -512.46304401 </i>
    <i name="e_0_energy">   -512.45103998 </i>
   </energy>
  </scstep>
  <structure>
   <crystal>
    <varray name="basis" >
     <v>       8.53269958       0.00000000       0.00000000 </v>
     <v>      -0.00051933       8.49699972       0.00000000 </v>
     <v>       0.00000000       0.00000000      23.59499931 </v>
    </varray>
    <i name="volume">   1710.69280467 </i>
    <varray name="rec_basis" >
     <v>       0.11719620       0.00000716       0.00000000 </v>
     <v>       0.00000000       0.11768860       0.00000000 </v>
     <v>       0.00000000       0.00000000       0.04238186 </v>
    </varray>
   </crystal>
   <varray name="positions" >
    <v>       0.00086000       0.99993000       0.24271000 </v>
    <v>       0.16589957       0.16471079       0.30323101 </v>
    <v>       0.50544035       0.16970429       0.30604542 </v>
    <v>       0.66822000       0.00107000       0.24272000 </v>
    <v>       0.83417243       0.16743432       0.30394797 </v>
    <v>       0.00044000       0.33497000       0.24240000 </v>
    <v>       0.16685214       0.50206384       0.30400934 </v>
    <v>       0.33469000       0.33305000       0.24267000 </v>
    <v>       0.49980869       0.49742802       0.30372178 </v>
    <v>       0.83502648       0.50420770       0.30217990 </v>
    <v>       0.16863847       0.83457814       0.30501553 </v>
    <v>       0.33342000       0.66555000       0.24261000 </v>
    <v>       0.83648674       0.83311478       0.30363590 </v>
    <v>       0.00064000       0.00119000       0.00199000 </v>
    <v>       0.99637837       0.00459563       0.36160297 </v>
    <v>       0.16843000       0.16962000       0.06269000 </v>
    <v>       0.33460000       0.00297000       0.00254000 </v>
    <v>       0.33708720       0.00653675       0.36195768 </v>
    <v>       0.50463000       0.16850000       0.06120000 </v>
    <v>       0.83272000       0.16670000       0.06193000 </v>
    <v>       0.00004000       0.33467000       0.00213000 </v>
    <v>       0.99857738       0.33186373       0.36006574 </v>
    <v>       0.16757000       0.49895000       0.06268000 </v>
    <v>       0.50099000       0.49896000       0.06206000 </v>
    <v>       0.83393000       0.50234000       0.06235000 </v>
    <v>       0.00121000       0.66785000       0.00188000 </v>
    <v>       0.99786624       0.66609651       0.36044313 </v>
    <v>       0.16792000       0.83462000       0.06228000 </v>
    <v>       0.33437000       0.66664000       0.00225000 </v>
    <v>       0.34005745       0.66315868       0.36175193 </v>
    <v>       0.50152000       0.83563000       0.06217000 </v>
    <v>       0.66753000       0.66705000       0.00175000 </v>
    <v>       0.66339310       0.66459610       0.36034303 </v>
    <v>       0.83293000       0.83584000       0.06235000 </v>
    <v>       0.00121000       0.00098000       0.12225000 </v>
    <v>       0.16700000       0.16811000       0.18239000 </v>
    <v>       0.33470000       0.00227000       0.12192000 </v>
    <v>       0.50174000       0.16716000       0.18263000 </v>
    <v>       0.83421000       0.16639000       0.18283000 </v>
    <v>       0.16964000       0.49868000       0.18209000 </v>
    <v>       0.50219000       0.50081000       0.18317000 </v>
    <v>       0.66741000       0.33395000       0.12233000 </v>
    <v>       0.83134000       0.50253000       0.18283000 </v>
    <v>       0.00132000       0.66795000       0.12253000 </v>
    <v>       0.16898000       0.83509000       0.18243000 </v>
    <v>       0.33446000       0.66703000       0.12223000 </v>
    <v>       0.49971000       0.83538000       0.18278000 </v>
    <v>       0.66698000       0.66840000       0.12259000 </v>
    <v>       0.83488000       0.83403000       0.18294000 </v>
    <v>       0.33558000       0.99863000       0.24353000 </v>
    <v>       0.66801000       0.33262000       0.24229000 </v>
    <v>       0.00448000       0.66739000       0.24217000 </v>
    <v>       0.49661475       0.83343711       0.30116455 </v>
    <v>       0.66521000       0.67351000       0.24327000 </v>
    <v>       0.66620000       0.99680000       0.00000000 </v>
    <v>       0.66737432       0.98761411       0.36400103 </v>
    <v>       0.33213000       0.33386000       0.00135000 </v>
    <v>       0.32276710       0.33243764       0.36515367 </v>
    <v>       0.67040000       0.33673000       0.00321000 </v>
    <v>       0.67730008       0.34335154       0.36693267 </v>
    <v>       0.66728000       0.99998000       0.12246000 </v>
    <v>       0.99806000       0.33495000       0.12235000 </v>
    <v>       0.33675000       0.33238000       0.12261000 </v>
    <v>       0.16864000       0.83458000       0.42000000 </v>
   </varray>
  </structure>
  <varray name="forces" >
   <v>      -0.08839135       0.01176191      -0.00255315 </v>
   <v>       0.03052110       0.05136305      -0.04917771 </v>
   <v>      -0.22490007      -0.26037154      -0.47962496 </v>
   <v>       0.04120034       0.01896292      -0.09344104 </v>
   <v>       0.12301512      -0.01899562      -0.29314725 </v>
   <v>       0.04001034      -0.00079290      -0.14491764 </v>
   <v>       0.01792031      -0.01765045      -0.05882263 </v>
   <v>      -0.06554242      -0.10290752      -0.08100849 </v>
   <v>       0.10076041       0.23205531      -0.29794148 </v>
   <v>      -0.05842675       0.00707896      -0.50902272 </v>
   <v>      -0.02540281      -0.02699366      -0.88228265 </v>
   <v>      -0.05555643      -0.16727283      -0.02509228 </v>
   <v>      -0.02806544      -0.00785860      -0.06097583 </v>
   <v>       0.03747496      -0.05434860       0.26605552 </v>
   <v>      -1.10295000       1.04651122      -0.64462063 </v>
   <v>      -0.32645856      -0.27909663      -0.01879665 </v>
   <v>      -0.04694917      -0.03595150       0.39054834 </v>
   <v>       1.15144863       1.08091791      -0.74850358 </v>
   <v>      -0.21222653      -0.15365958       0.56878684 </v>
   <v>       0.42393391       0.15625752       0.20145628 </v>
   <v>      -0.05894453       0.02294239       0.41489522 </v>
   <v>       0.15914488      -0.00299014      -0.05373160 </v>
   <v>      -0.25813573       0.30695666      -0.00514697 </v>
   <v>       0.12511087       0.46519872       0.20940943 </v>
   <v>       0.13878115       0.11609702      -0.08464986 </v>
   <v>       0.05216976       0.02291129       0.13098816 </v>
   <v>      -1.04344964      -1.01117166      -0.63752365 </v>
   <v>      -0.02577980      -0.00088931      -0.41373456 </v>
   <v>      -0.10491547       0.03332712       0.26010957 </v>
   <v>       1.09032709      -1.04753395      -0.68909991 </v>
   <v>      -0.29008267      -0.36460087       0.00214267 </v>
   <v>       0.00138699      -0.05952716       0.41997553 </v>
   <v>      -0.04141415       0.21718597      -0.05587020 </v>
   <v>       0.35891026      -0.35123947      -0.00614603 </v>
   <v>       0.01098105       0.13929915      -0.02221382 </v>
   <v>      -0.00279276      -0.00931328       0.05285430 </v>
   <v>       0.07741769       0.06245096       0.01518773 </v>
   <v>      -0.07194635      -0.04911829       0.18263376 </v>
   <v>       0.02348903       0.00784313       0.16091657 </v>
   <v>      -0.03365869       0.01715895       0.24980851 </v>
   <v>       0.02944719       0.05093892       0.16679928 </v>
   <v>       0.05920379       0.00887220      -0.05447205 </v>
   <v>       0.04981275       0.05812264       0.11358285 </v>
   <v>      -0.05809517      -0.07534522      -0.09003286 </v>
   <v>       0.00200968       0.01273373       0.08775885 </v>
   <v>       0.13176659      -0.00484485      -0.03821434 </v>
   <v>       0.00232272      -0.01559036       0.02615167 </v>
   <v>      -0.07795411      -0.07453514       0.04712861 </v>
   <v>       0.01827077      -0.05194835       0.21580028 </v>
   <v>       0.29346267       0.17361024       0.12248581 </v>
   <v>      -0.02480198      -0.06212413       0.34313911 </v>
   <v>      -0.01206317      -0.05637046      -0.14531179 </v>
   <v>      -0.07809536      -0.00716776       0.02636458 </v>
   <v>      -0.12218744       0.03657572      -0.04102460 </v>
   <v>       0.06424615       0.42507588      -0.78028878 </v>
   <v>      -0.00416157       0.41547798      -0.05163407 </v>
   <v>       0.32699195       0.00628479      -0.64134184 </v>
   <v>       0.39239591      -0.03460180      -0.00426578 </v>
   <v>      -0.31217038      -0.35150150      -0.21460005 </v>
   <v>      -0.44164536      -0.38554656       0.45014802 </v>
   <v>      -0.09347519       0.18050194      -0.32551074 </v>
   <v>      -0.06608230      -0.05487819      -0.07088541 </v>
   <v>       0.12077104      -0.09009537      -0.46193117 </v>
   <v>      -0.03798377      -0.09764096       4.15243129 </v>
  </varray>
  <varray name="stress" >
   <v>     -12.69499159       0.83299970       0.26126990 </v>
   <v>       0.83299983     -12.75214931       0.33118010 </v>
   <v>       0.26126922       0.33118007       2.62769260 </v>
  </varray>
  <energy>
   <i name="e_fr_energy">   -512.44503796 </i>
   <i name="e_wo_entrp">   -512.46304401 </i>
   <i name="e_0_energy">   -512.45103998 </i>
  </energy>
  <time name="totalsc">10785.47 1731.33</time>
 </calculation>
 <calculation>
  <scstep>
   <time name="dav">  121.87   17.59</time>
   <time name="total">  148.19   24.37</time>
   <dipole>
    <v name="dipole">      0.00000000       0.00000000       0.11244326 </v>
    <i name="Tr[quadrupol]">  -7082.37364039 </i>
    <i name="Echarged">      0.00000000 </i>
    <i name="Edipol_quadrupol">      0.00000000 </i>
    <i name="Eion">      0.00000000 </i>
   </dipole>
   <energy>
    <i name="alphaZ">   1869.53165181 </i>
    <i name="ewald"> 211753.12461225 </i>
    <i name="hartreedc">-263508.33762152 </i>
    <i name="XCdc">   1004.51743590 </i>
    <i name="pawpsdc">  56310.39293632 </i>
    <i name="pawaedc"> -57443.97464047 </i>
    <i name="eentropy">      0.02803327 </i>
    <i name="bandstr">  -4350.24013792 </i>
    <i name="atom">  53853.58386974 </i>
    <i name="e_fr_energy">   -511.37386060 </i>
    <i name="e_wo_entrp">   -511.40189388 </i>
    <i name="e_0_energy">   -511.38320503 </i>
   </energy>
  </scstep>
  <scstep>
   <time name="dav">  172.09   24.84</time>
   <time name="total">  198.49   31.67</time>
   <dipole>
    <v name="dipole">      0.00000000       0.00000000      -0.08624180 </v>
    <i name="Tr[quadrupol]">  -7082.78991072 </i>
    <i name="Echarged">      0.00000000 </i>
    <i name="Edipol_quadrupol">      0.00000000 </i>
    <i name="Eion">      0.00000000 </i>
   </dipole>
   <energy>
    <i name="e_fr_energy">   -513.70024521 </i>
    <i name="e_wo_entrp">   -513.72505786 </i>
    <i name="e_0_energy">   -513.70851610 </i>
   </energy>
  </scstep>
  <scstep>
   <time name="dav">  184.10   26.47</time>
   <time name="total">  210.40   33.23</time>
   <dipole>
    <v name="dipole">      0.00000000       0.00000000       0.30989797 </v>
    <i name="Tr[quadrupol]">  -7082.99099035 </i>
    <i name="Echarged">      0.00000000 </i>
    <i name="Edipol_quadrupol">      0.00000000 </i>
    <i name="Eion">      0.00000000 </i>
   </dipole>
   <energy>
    <i name="e_fr_energy">   -514.55555231 </i>
    <i name="e_wo_entrp">   -514.58053762 </i>
    <i name="e_0_energy">   -514.56388075 </i>
   </energy>
  </scstep>
  <scstep>
   <time name="dav">  195.58   28.17</time>
   <time name="total">  221.87   34.93</time>
   <dipole>
    <v name="dipole">      0.00000000       0.00000000       0.10231459 </v>
    <i name="Tr[quadrupol]">  -7082.29015407 </i>
    <i name="Echarged">      0.00000000 </i>
    <i name="Edipol_quadrupol">      0.00000000 </i>
    <i name="Eion">      0.00000000 </i>
   </dipole>
   <energy>
    <i name="e_fr_energy">   -512.96888737 </i>
    <i name="e_wo_entrp">   -512.99169051 </i>
    <i name="e_0_energy">   -512.97648842 </i>
   </energy>
  </scstep>
  <scstep>
   <time name="dav">  168.96   24.39</time>
   <time name="total">  195.30   31.19</time>
   <dipole>
    <v name="dipole">      0.00000000       0.00000000       0.08624402 </v>
    <i name="Tr[quadrupol]">  -7082.66462319 </i>
    <i name="Echarged">      0.00000000 </i>
    <i name="Edipol_quadrupol">      0.00000000 </i>
    <i name="Eion">      0.00000000 </i>
   </dipole>
   <energy>
    <i name="e_fr_energy">   -513.08517662 </i>
    <i name="e_wo_entrp">   -513.10405413 </i>
    <i name="e_0_energy">   -513.09146913 </i>
   </energy>
  </scstep>
  <scstep>
   <time name="dav">  164.67   23.68</time>
   <time name="total">  191.08   30.51</time>
   <dipole>
    <v name="dipole">      0.00000000       0.00000000       0.09259344 </v>
    <i name="Tr[quadrupol]">  -7082.39978421 </i>
    <i name="Echarged">      0.00000000 </i>
    <i name="Edipol_quadrupol">      0.00000000 </i>
    <i name="Eion">      0.00000000 </i>
   </dipole>
   <energy>
    <i name="e_fr_energy">   -513.20798138 </i>
    <i name="e_wo_entrp">   -513.22842670 </i>
    <i name="e_0_energy">   -513.21479649 </i>
   </energy>
  </scstep>
  <scstep>
   <time name="dav">  176.77   25.40</time>
   <time name="total">  203.06   32.20</time>
   <dipole>
    <v name="dipole">      0.00000000       0.00000000       0.10273815 </v>
    <i name="Tr[quadrupol]">  -7082.66501307 </i>
    <i name="Echarged">      0.00000000 </i>
    <i name="Edipol_quadrupol">      0.00000000 </i>
    <i name="Eion">      0.00000000 </i>
   </dipole>
   <energy>
    <i name="e_fr_energy">   -513.26547967 </i>
    <i name="e_wo_entrp">   -513.28602025 </i>
    <i name="e_0_energy">   -513.27232653 </i>
   </energy>
  </scstep>
  <scstep>
   <time name="dav">  174.69   25.14</time>
[...]
       <r>   -38.3933    -0.0000    42.0000 </r>
       <r>   -38.2227    -0.0000    42.0000 </r>
       <r>   -38.0521     0.0000    42.0000 </r>
       <r>   -37.8815     0.0000    42.0000 </r>
       <r>   -37.7109     0.0000    42.0000 </r>
       <r>   -37.5404     0.0000    42.0000 </r>
       <r>   -37.3698     0.0000    42.0000 </r>
       <r>   -37.1992     0.0000    42.0000 </r>
       <r>   -37.0286     0.0000    42.0000 </r>
       <r>   -36.8581     0.0000    42.0000 </r>
       <r>   -36.6875     0.0000    42.0000 </r>
       <r>   -36.5169     0.0000    42.0000 </r>
       <r>   -36.3463     0.0000    42.0000 </r>
       <r>   -36.1757     0.0000    42.0000 </r>
       <r>   -36.0052     0.0000    42.0000 </r>
       <r>   -35.8346     0.0000    42.0000 </r>
       <r>   -35.6640     0.0000    42.0000 </r>
       <r>   -35.4934     0.0000    42.0000 </r>
       <r>   -35.3228     0.0000    42.0000 </r>
       <r>   -35.1523     0.0000    42.0000 </r>
       <r>   -34.9817     0.0000    42.0000 </r>
       <r>   -34.8111     0.0000    42.0000 </r>
       <r>   -34.6405     0.0000    42.0000 </r>
       <r>   -34.4699     0.0000    42.0000 </r>
       <r>   -34.2994     0.0000    42.0000 </r>
       <r>   -34.1288     0.0000    42.0000 </r>
       <r>   -33.9582     0.0000    42.0000 </r>
       <r>   -33.7876     0.0000    42.0000 </r>
       <r>   -33.6170     0.0000    42.0000 </r>
       <r>   -33.4465     0.0000    42.0000 </r>
       <r>   -33.2759     0.0000    42.0000 </r>
       <r>   -33.1053     0.0000    42.0000 </r>
       <r>   -32.9347     0.0000    42.0000 </r>
       <r>   -32.7642     0.0000    42.0000 </r>
       <r>   -32.5936     0.0000    42.0000 </r>
       <r>   -32.4230     0.0000    42.0000 </r>
       <r>   -32.2524     0.0000    42.0000 </r>
       <r>   -32.0818     0.0000    42.0000 </r>
       <r>   -31.9113     0.0000    42.0000 </r>
       <r>   -31.7407     0.0000    42.0000 </r>
       <r>   -31.5701     0.0000    42.0000 </r>
       <r>   -31.3995     0.0000    42.0000 </r>
       <r>   -31.2289     0.0000    42.0000 </r>
       <r>   -31.0584     0.0000    42.0000 </r>
       <r>   -30.8878     0.0000    42.0000 </r>
       <r>   -30.7172     0.0000    42.0000 </r>
       <r>   -30.5466     0.0000    42.0000 </r>
       <r>   -30.3760     0.0000    42.0000 </r>
       <r>   -30.2055     0.0000    42.0000 </r>
       <r>   -30.0349     0.0000    42.0000 </r>
       <r>   -29.8643     0.0000    42.0000 </r>
       <r>   -29.6937     0.0000    42.0000 </r>
       <r>   -29.5232     0.0000    42.0000 </r>
       <r>   -29.3526     0.0000    42.0000 </r>
       <r>   -29.1820     0.0000    42.0000 </r>
       <r>   -29.0114     0.0000    42.0000 </r>
       <r>   -28.8408     0.0000    42.0000 </r>
       <r>   -28.6703     0.0000    42.0000 </r>
       <r>   -28.4997     0.0000    42.0000 </r>
       <r>   -28.3291     0.0000    42.0000 </r>
       <r>   -28.1585     0.0000    42.0000 </r>
       <r>   -27.9879     0.0000    42.0000 </r>
       <r>   -27.8174     0.0000    42.0000 </r>
       <r>   -27.6468     0.0000    42.0000 </r>
       <r>   -27.4762     0.0000    42.0000 </r>
       <r>   -27.3056     0.0000    42.0000 </r>
       <r>   -27.1350     0.0000    42.0000 </r>
       <r>   -26.9645     0.0000    42.0000 </r>
       <r>   -26.7939     0.0000    42.0000 </r>
       <r>   -26.6233     0.0000    42.0000 </r>
       <r>   -26.4527     0.0000    42.0000 </r>
       <r>   -26.2821     0.0000    42.0000 </r>
       <r>   -26.1116     0.0000    42.0000 </r>
       <r>   -25.9410     0.0000    42.0000 </r>
       <r>   -25.7704     0.0000    42.0000 </r>
       <r>   -25.5998     0.0000    42.0000 </r>
       <r>   -25.4293     0.0000    42.0000 </r>
       <r>   -25.2587     0.0000    42.0000 </r>
       <r>   -25.0881     0.0000    42.0000 </r>
       <r>   -24.9175     0.0000    42.0000 </r>
       <r>   -24.7469     0.0000    42.0000 </r>
       <r>   -24.5764     0.0000    42.0000 </r>
       <r>   -24.4058     0.0000    42.0000 </r>
       <r>   -24.2352     0.0000    42.0000 </r>
       <r>   -24.0646     0.0000    42.0000 </r>
       <r>   -23.8940     0.0000    42.0000 </r>
       <r>   -23.7235     0.0000    42.0000 </r>
       <r>   -23.5529     0.0000    42.0000 </r>
       <r>   -23.3823     0.0000    42.0000 </r>
       <r>   -23.2117     0.0000    42.0000 </r>
       <r>   -23.0411     0.0000    42.0000 </r>
       <r>   -22.8706     0.0000    42.0000 </r>
       <r>   -22.7000     0.0000    42.0000 </r>
       <r>   -22.5294     0.0000    42.0000 </r>
       <r>   -22.3588     0.0000    42.0000 </r>
       <r>   -22.1882     0.0000    42.0000 </r>
       <r>   -22.0177     0.0000    42.0000 </r>
       <r>   -21.8471     0.0000    42.0000 </r>
       <r>   -21.6765     0.0000    42.0000 </r>
       <r>   -21.5059     0.0000    42.0000 </r>
       <r>   -21.3354     0.0000    42.0000 </r>
       <r>   -21.1648     0.0000    42.0000 </r>
       <r>   -20.9942     0.0000    42.0000 </r>
       <r>   -20.8236     0.0000    42.0000 </r>
       <r>   -20.6530     0.0000    42.0000 </r>
       <r>   -20.4825     0.0000    42.0000 </r>
       <r>   -20.3119     0.0000    42.0000 </r>
       <r>   -20.1413     0.0000    42.0000 </r>
       <r>   -19.9707     0.0000    42.0000 </r>
       <r>   -19.8001     0.0000    42.0000 </r>
       <r>   -19.6296     0.0000    42.0000 </r>
       <r>   -19.4590     0.0000    42.0000 </r>
       <r>   -19.2884     0.0000    42.0000 </r>
       <r>   -19.1178     0.0000    42.0000 </r>
       <r>   -18.9472     0.0000    42.0000 </r>
       <r>   -18.7767     0.0000    42.0000 </r>
       <r>   -18.6061     0.0000    42.0000 </r>
       <r>   -18.4355     0.0000    42.0000 </r>
       <r>   -18.2649     0.0000    42.0000 </r>
       <r>   -18.0943     0.0000    42.0000 </r>
       <r>   -17.9238     0.0000    42.0000 </r>
       <r>   -17.7532     0.0000    42.0000 </r>
       <r>   -17.5826     0.0000    42.0000 </r>
       <r>   -17.4120     0.0000    42.0000 </r>
       <r>   -17.2415     0.0000    42.0000 </r>
       <r>   -17.0709     0.0000    42.0000 </r>
       <r>   -16.9003     0.0000    42.0000 </r>
       <r>   -16.7297    -0.0000    42.0000 </r>
       <r>   -16.5591    -0.0000    42.0000 </r>
       <r>   -16.3886    -0.0000    42.0000 </r>
       <r>   -16.2180    -0.0000    42.0000 </r>
       <r>   -16.0474    -0.0000    42.0000 </r>
       <r>   -15.8768    -0.0029    41.9995 </r>
       <r>   -15.7062    -0.3361    41.9422 </r>
       <r>   -15.5357     1.1999    42.1469 </r>
       <r>   -15.3651    22.1942    45.9327 </r>
       <r>   -15.1945     7.0354    47.1328 </r>
       <r>   -15.0239    -0.7581    47.0035 </r>
       <r>   -14.8533    -0.0206    47.0000 </r>
       <r>   -14.6828    -0.0000    47.0000 </r>
       <r>   -14.5122    -0.0000    47.0000 </r>
       <r>   -14.3416    -0.0000    47.0000 </r>
       <r>   -14.1710     0.0000    47.0000 </r>
       <r>   -14.0004     0.0000    47.0000 </r>
       <r>   -13.8299     0.0000    47.0000 </r>
       <r>   -13.6593     0.0000    47.0000 </r>
       <r>   -13.4887     0.0000    47.0000 </r>
       <r>   -13.3181     0.0000    47.0000 </r>
       <r>   -13.1476     0.0000    47.0000 </r>
       <r>   -12.9770     0.0000    47.0000 </r>
       <r>   -12.8064     0.0000    47.0000 </r>
       <r>   -12.6358     0.0000    47.0000 </r>
       <r>   -12.4652     0.0000    47.0000 </r>
       <r>   -12.2947     0.0000    47.0000 </r>
       <r>   -12.1241     0.0000    47.0000 </r>
       <r>   -11.9535     0.0000    47.0000 </r>
       <r>   -11.7829     0.0000    47.0000 </r>
       <r>   -11.6123     0.0000    47.0000 </r>
       <r>   -11.4418     0.0000    47.0000 </r>
       <r>   -11.2712     0.0000    47.0000 </r>
       <r>   -11.1006     0.0000    47.0000 </r>
       <r>   -10.9300     0.0000    47.0000 </r>
       <r>   -10.7594     0.0000    47.0000 </r>
       <r>   -10.5889     0.0000    47.0000 </r>
       <r>   -10.4183     0.0000    47.0000 </r>
       <r>   -10.2477     0.0000    47.0000 </r>
       <r>   -10.0771     0.0000    47.0000 </r>
       <r>    -9.9065     0.0000    47.0000 </r>
       <r>    -9.7360     0.0000    47.0000 </r>
       <r>    -9.5654     0.0000    47.0000 </r>
       <r>    -9.3948     0.0000    47.0000 </r>
       <r>    -9.2242     0.0000    47.0000 </r>
       <r>    -9.0537     0.0000    47.0000 </r>
       <r>    -8.8831    -0.0000    47.0000 </r>
       <r>    -8.7125    -0.0000    47.0000 </r>
       <r>    -8.5419    -0.0000    47.0000 </r>
       <r>    -8.3713    -0.0000    47.0000 </r>
       <r>    -8.2008    -0.0000    47.0000 </r>
       <r>    -8.0302    -0.0007    46.9999 </r>
       <r>    -7.8596    -0.0788    46.9864 </r>
       <r>    -7.6890     0.3510    47.0463 </r>
       <r>    -7.5184     4.6355    47.8370 </r>
       <r>    -7.3479     1.0935    48.0236 </r>
       <r>    -7.1773    -0.1614    47.9960 </r>
       <r>    -7.0067     0.2122    48.0322 </r>
       <r>    -6.8361     1.4582    48.2810 </r>
       <r>    -6.6655     1.5028    48.5373 </r>
       <r>    -6.4950     0.8106    48.6756 </r>
       <r>    -6.3244     2.7427    49.1434 </r>
       <r>    -6.1538     1.0101    49.3157 </r>
       <r>    -5.9832     0.6094    49.4197 </r>
       <r>    -5.8127     3.3927    49.9984 </r>
       <r>    -5.6421     4.2974    50.7314 </r>
       <r>    -5.4715     2.0056    51.0735 </r>
       <r>    -5.3009     4.4615    51.8346 </r>
       <r>    -5.1303     1.7455    52.1323 </r>
       <r>    -4.9598     2.4178    52.5448 </r>
       <r>    -4.7892     6.3842    53.6338 </r>
       <r>    -4.6186     3.3694    54.2085 </r>
       <r>    -4.4480     4.4568    54.9688 </r>
       <r>    -4.2774     4.1232    55.6721 </r>
       <r>    -4.1069     5.4669    56.6046 </r>
       <r>    -3.9363     9.2044    58.1747 </r>
       <r>    -3.7657     6.2455    59.2401 </r>
       <r>    -3.5951     8.0872    60.6196 </r>
       <r>    -3.4245     5.9790    61.6395 </r>
       <r>    -3.2540    11.1894    63.5481 </r>
       <r>    -3.0834    14.7390    66.0623 </r>
       <r>    -2.9128    18.9074    69.2875 </r>
       <r>    -2.7422    21.9151    73.0258 </r>
       <r>    -2.5716    20.2144    76.4739 </r>
       <r>    -2.4011    21.1342    80.0790 </r>
       <r>    -2.2305    28.8821    85.0057 </r>
       <r>    -2.0599    31.9512    90.4559 </r>
       <r>    -1.8893    31.7063    95.8643 </r>
       <r>    -1.7188    35.1462   101.8595 </r>
       <r>    -1.5482    33.4243   107.5610 </r>
       <r>    -1.3776    42.0377   114.7318 </r>
       <r>    -1.2070    50.3835   123.3261 </r>
       <r>    -1.0364    49.8649   131.8321 </r>
       <r>    -0.8659    50.4776   140.4425 </r>
       <r>    -0.6953    51.8849   149.2930 </r>
       <r>    -0.5247    58.7761   159.3190 </r>
       <r>    -0.3541    66.1330   170.5999 </r>
       <r>    -0.1835    66.3361   181.9154 </r>
       <r>    -0.0130    63.3321   192.7185 </r>
       <r>     0.1576    51.9977   201.5883 </r>
       <r>     0.3282    40.8685   208.5596 </r>
       <r>     0.4988    36.4390   214.7753 </r>
       <r>     0.6694    31.5259   220.1530 </r>
       <r>     0.8399    27.0010   224.7588 </r>
       <r>     1.0105    33.7159   230.5100 </r>
       <r>     1.1811    41.5476   237.5972 </r>
       <r>     1.3517    51.0481   246.3049 </r>
       <r>     1.5223    56.3483   255.9168 </r>
       <r>     1.6928    62.5284   266.5828 </r>
       <r>     1.8634    70.5684   278.6203 </r>
       <r>     2.0340    68.8320   290.3616 </r>
       <r>     2.2046    78.0070   303.6680 </r>
       <r>     2.3751    88.9329   318.8380 </r>
       <r>     2.5457    96.8192   335.3534 </r>
       <r>     2.7163    93.0814   351.2311 </r>
       <r>     2.8869    66.8436   362.6333 </r>
       <r>     3.0575    44.6850   370.2556 </r>
       <r>     3.2280    29.0441   375.2099 </r>
       <r>     3.3986     5.2976   376.1136 </r>
       <r>     3.5692    -0.6384   376.0047 </r>
       <r>     3.7398    -0.0272   376.0000 </r>
       <r>     3.9104    -0.0001   376.0000 </r>
       <r>     4.0809    -0.0000   376.0000 </r>
       <r>     4.2515    -0.0000   376.0000 </r>
       <r>     4.4221     0.0000   376.0000 </r>
       <r>     4.5927     0.0000   376.0000 </r>
       <r>     4.7633     0.0000   376.0000 </r>
       <r>     4.9338     0.0000   376.0000 </r>
       <r>     5.1044     0.0000   376.0000 </r>
       <r>     5.2750     0.0000   376.0000 </r>
       <r>     5.4456     0.0000   376.0000 </r>
       <r>     5.6162     0.0000   376.0000 </r>
      </set>
     </set>
    </array>
   </total>
  </dos>
 </calculation>
 <structure name="finalpos" >
  <crystal>
   <varray name="basis" >
    <v>       8.53269958       0.00000000       0.00000000 </v>
    <v>      -0.00051933       8.49699972       0.00000000 </v>
    <v>       0.00000000       0.00000000      23.59499931 </v>
   </varray>
   <i name="volume">   1710.69280467 </i>
   <varray name="rec_basis" >
    <v>       0.11719620       0.00000716       0.00000000 </v>
    <v>       0.00000000       0.11768860       0.00000000 </v>
    <v>       0.00000000       0.00000000       0.04238186 </v>
   </varray>
  </crystal>
  <varray name="positions" >
   <v>       0.00086000       0.99993000       0.24271000 </v>
   <v>       0.16724123       0.16532663       0.30394339 </v>
   <v>       0.49829084       0.16380705       0.29955680 </v>
   <v>       0.66822000       0.00107000       0.24272000 </v>
   <v>       0.83672777       0.17037063       0.30156466 </v>
   <v>       0.00044000       0.33497000       0.24240000 </v>
   <v>       0.16753604       0.50071261       0.30462257 </v>
   <v>       0.33469000       0.33305000       0.24267000 </v>
   <v>       0.50427462       0.50218336       0.30069597 </v>
   <v>       0.82993285       0.50069935       0.30131577 </v>
   <v>       0.16768928       0.83389898       0.30664764 </v>
   <v>       0.33342000       0.66555000       0.24261000 </v>
   <v>       0.83481450       0.83386474       0.30408702 </v>
   <v>       0.00064000       0.00119000       0.00199000 </v>
   <v>       0.98884752       0.00965484       0.36258730 </v>
   <v>       0.16843000       0.16962000       0.06269000 </v>
   <v>       0.33460000       0.00297000       0.00254000 </v>
   <v>       0.34672770       0.01228145       0.36373375 </v>
   <v>       0.50463000       0.16850000       0.06120000 </v>
   <v>       0.83272000       0.16670000       0.06193000 </v>
   <v>       0.00004000       0.33467000       0.00213000 </v>
   <v>       0.00136425       0.33153553       0.36061831 </v>
   <v>       0.16757000       0.49895000       0.06268000 </v>
   <v>       0.50099000       0.49896000       0.06206000 </v>
   <v>       0.83393000       0.50234000       0.06235000 </v>
   <v>       0.00121000       0.66785000       0.00188000 </v>
   <v>       0.98965477       0.65839557       0.36110335 </v>
   <v>       0.16792000       0.83462000       0.06228000 </v>
   <v>       0.33437000       0.66664000       0.00225000 </v>
   <v>       0.34755001       0.65398105       0.36270453 </v>
   <v>       0.50152000       0.83563000       0.06217000 </v>
   <v>       0.66753000       0.66705000       0.00175000 </v>
   <v>       0.66094744       0.67320425       0.36128660 </v>
   <v>       0.83293000       0.83584000       0.06235000 </v>
   <v>       0.00121000       0.00098000       0.12225000 </v>
   <v>       0.16700000       0.16811000       0.18239000 </v>
   <v>       0.33470000       0.00227000       0.12192000 </v>
   <v>       0.50174000       0.16716000       0.18263000 </v>
   <v>       0.83421000       0.16639000       0.18283000 </v>
   <v>       0.16964000       0.49868000       0.18209000 </v>
   <v>       0.50219000       0.50081000       0.18317000 </v>
   <v>       0.66741000       0.33395000       0.12233000 </v>
   <v>       0.83134000       0.50253000       0.18283000 </v>
   <v>       0.00132000       0.66795000       0.12253000 </v>
   <v>       0.16898000       0.83509000       0.18243000 </v>
   <v>       0.33446000       0.66703000       0.12223000 </v>
   <v>       0.49971000       0.83538000       0.18278000 </v>
   <v>       0.66698000       0.66840000       0.12259000 </v>
   <v>       0.83488000       0.83403000       0.18294000 </v>
   <v>       0.33558000       0.99863000       0.24353000 </v>
   <v>       0.66801000       0.33262000       0.24229000 </v>
   <v>       0.00448000       0.66739000       0.24217000 </v>
   <v>       0.49499758       0.83444516       0.30142438 </v>
   <v>       0.66521000       0.67351000       0.24327000 </v>
   <v>       0.66620000       0.99680000       0.00000000 </v>
   <v>       0.66836834       0.00980947       0.36235523 </v>
   <v>       0.33213000       0.33386000       0.00135000 </v>
   <v>       0.34218053       0.33245841       0.36351972 </v>
   <v>       0.67040000       0.33673000       0.00321000 </v>
   <v>       0.65956162       0.32944426       0.37073792 </v>
   <v>       0.66728000       0.99998000       0.12246000 </v>
   <v>       0.99806000       0.33495000       0.12235000 </v>
   <v>       0.33675000       0.33238000       0.12261000 </v>
   <v>       0.16861731       0.83212528       0.43627039 </v>
  </varray>
  <varray name="selective"  type="logical" >
   <v type="logical" >  F  F  F </v>
   <v type="logical" >  T  T  T </v>
   <v type="logical" >  T  T  T </v>
   <v type="logical" >  F  F  F </v>
   <v type="logical" >  T  T  T </v>
   <v type="logical" >  F  F  F </v>
   <v type="logical" >  T  T  T </v>
   <v type="logical" >  F  F  F </v>
   <v type="logical" >  T  T  T </v>
   <v type="logical" >  T  T  T </v>
   <v type="logical" >  T  T  T </v>
   <v type="logical" >  F  F  F </v>
   <v type="logical" >  T  T  T </v>
   <v type="logical" >  F  F  F </v>
   <v type="logical" >  T  T  T </v>
   <v type="logical" >  F  F  F </v>
   <v type="logical" >  F  F  F </v>
   <v type="logical" >  T  T  T </v>
   <v type="logical" >  F  F  F </v>
   <v type="logical" >  F  F  F </v>
   <v type="logical" >  F  F  F </v>
   <v type="logical" >  T  T  T </v>
   <v type="logical" >  F  F  F </v>
   <v type="logical" >  F  F  F </v>
   <v type="logical" >  F  F  F </v>
   <v type="logical" >  F  F  F </v>
   <v type="logical" >  T  T  T </v>
   <v type="logical" >  F  F  F </v>
   <v type="logical" >  F  F  F </v>
   <v type="logical" >  T  T  T </v>
   <v type="logical" >  F  F  F </v>
   <v type="logical" >  F  F  F </v>
   <v type="logical" >  T  T  T </v>
   <v type="logical" >  F  F  F </v>
   <v type="logical" >  F  F  F </v>
   <v type="logical" >  F  F  F </v>
   <v type="logical" >  F  F  F </v>
   <v type="logical" >  F  F  F </v>
   <v type="logical" >  F  F  F </v>
   <v type="logical" >  F  F  F </v>
   <v type="logical" >  F  F  F </v>
   <v type="logical" >  F  F  F </v>
   <v type="logical" >  F  F  F </v>
   <v type="logical" >  F  F  F </v>
   <v type="logical" >  F  F  F </v>
   <v type="logical" >  F  F  F </v>
   <v type="logical" >  F  F  F </v>
   <v type="logical" >  F  F  F </v>
   <v type="logical" >  F  F  F </v>
   <v type="logical" >  F  F  F </v>
   <v type="logical" >  F  F  F </v>
   <v type="logical" >  F  F  F </v>
   <v type="logical" >  T  T  T </v>
   <v type="logical" >  F  F  F </v>
   <v type="logical" >  F  F  F </v>
   <v type="logical" >  T  T  T </v>
   <v type="logical" >  F  F  F </v>
   <v type="logical" >  T  T  T </v>
   <v type="logical" >  F  F  F </v>
   <v type="logical" >  T  T  T </v>
   <v type="logical" >  F  F  F </v>
   <v type="logical" >  F  F  F </v>
   <v type="logical" >  F  F  F </v>
   <v type="logical" >  T  T  T </v>
  </varray>
  <nose>
   <v>      -3.00000000       0.00000000       0.00010000       0.00010000 </v>
  </nose>
 </structure>
</modeling>
