ni3al                                   
           1
     8.532700    0.000000    0.000000
    -0.000519    8.497000    0.000000
     0.000000    0.000000   23.594999
   Fe   Cr   Pb
    49    14     1
Direct configuration=     1
   0.00086000  0.99993000  0.24271000
   0.16589957  0.16471079  0.30323101
   0.50544035  0.16970429  0.30604542
   0.66822000  0.00107000  0.24272000
   0.83417243  0.16743432  0.30394797
   0.00044000  0.33497000  0.24240000
   0.16685214  0.50206384  0.30400934
   0.33469000  0.33305000  0.24267000
   0.49980869  0.49742802  0.30372178
   0.83502648  0.50420770  0.30217990
   0.16863847  0.83457814  0.30501553
   0.33342000  0.66555000  0.24261000
   0.83648674  0.83311478  0.30363590
   0.00064000  0.00119000  0.00199000
   0.99637837  0.00459563  0.36160297
   0.16843000  0.16962000  0.06269000
   0.33460000  0.00297000  0.00254000
   0.33708720  0.00653675  0.36195768
   0.50463000  0.16850000  0.06120000
   0.83272000  0.16670000  0.06193000
   0.00004000  0.33467000  0.00213000
   0.99857738  0.33186373  0.36006574
   0.16757000  0.49895000  0.06268000
   0.50099000  0.49896000  0.06206000
   0.83393000  0.50234000  0.06235000
   0.00121000  0.66785000  0.00188000
   0.99786624  0.66609651  0.36044313
   0.16792000  0.83462000  0.06228000
   0.33437000  0.66664000  0.00225000
   0.34005745  0.66315868  0.36175193
   0.50152000  0.83563000  0.06217000
   0.66753000  0.66705000  0.00175000
   0.66339310  0.66459610  0.36034303
   0.83293000  0.83584000  0.06235000
   0.00121000  0.00098000  0.12225000
   0.16700000  0.16811000  0.18239000
   0.33470000  0.00227000  0.12192000
   0.50174000  0.16716000  0.18263000
   0.83421000  0.16639000  0.18283000
   0.16964000  0.49868000  0.18209000
   0.50219000  0.50081000  0.18317000
   0.66741000  0.33395000  0.12233000
   0.83134000  0.50253000  0.18283000
   0.00132000  0.66795000  0.12253000
   0.16898000  0.83509000  0.18243000
   0.33446000  0.66703000  0.12223000
   0.49971000  0.83538000  0.18278000
   0.66698000  0.66840000  0.12259000
   0.83488000  0.83403000  0.18294000
   0.33558000  0.99863000  0.24353000
   0.66801000  0.33262000  0.24229000
   0.00448000  0.66739000  0.24217000
   0.49661475  0.83343711  0.30116455
   0.66521000  0.67351000  0.24327000
   0.66620000  0.99680000  0.00000000
   0.66737432  0.98761411  0.36400103
   0.33213000  0.33386000  0.00135000
   0.32276710  0.33243764  0.36515367
   0.67040000  0.33673000  0.00321000
   0.67730008  0.34335154  0.36693267
   0.66728000  0.99998000  0.12246000
   0.99806000  0.33495000  0.12235000
   0.33675000  0.33238000  0.12261000
   0.16864000  0.83458000  0.42000000
Direct configuration=     2
   0.00086000  0.99993000  0.24271000
   0.16607215  0.16500241  0.30313046
   0.50416870  0.16822600  0.30506478
   0.66822000  0.00107000  0.24272000
   0.83486793  0.16732647  0.30334860
   0.00044000  0.33497000  0.24240000
   0.16695346  0.50196363  0.30388907
   0.33469000  0.33305000  0.24267000
   0.50037845  0.49874554  0.30311261
   0.83469614  0.50424789  0.30113915
   0.16849484  0.83442488  0.30321160
   0.33342000  0.66555000  0.24261000
   0.83632806  0.83307016  0.30351123
   0.00064000  0.00119000  0.00199000
   0.99014281  0.01053731  0.36028497
   0.16843000  0.16962000  0.06269000
   0.33460000  0.00297000  0.00254000
   0.34359770  0.01267378  0.36042728
   0.50463000  0.16850000  0.06120000
   0.83272000  0.16670000  0.06193000
   0.00004000  0.33467000  0.00213000
   0.99947717  0.33184675  0.35995588
   0.16757000  0.49895000  0.06268000
   0.50099000  0.49896000  0.06206000
   0.83393000  0.50234000  0.06235000
   0.00121000  0.66785000  0.00188000
   0.99196638  0.66035547  0.35913964
   0.16792000  0.83462000  0.06228000
   0.33437000  0.66664000  0.00225000
   0.34622164  0.65721119  0.36034299
   0.50152000  0.83563000  0.06217000
   0.66753000  0.66705000  0.00175000
   0.66315902  0.66582920  0.36022880
   0.83293000  0.83584000  0.06235000
   0.00121000  0.00098000  0.12225000
   0.16700000  0.16811000  0.18239000
   0.33470000  0.00227000  0.12192000
   0.50174000  0.16716000  0.18263000
   0.83421000  0.16639000  0.18283000
   0.16964000  0.49868000  0.18209000
   0.50219000  0.50081000  0.18317000
   0.66741000  0.33395000  0.12233000
   0.83134000  0.50253000  0.18283000
   0.00132000  0.66795000  0.12253000
   0.16898000  0.83509000  0.18243000
   0.33446000  0.66703000  0.12223000
   0.49971000  0.83538000  0.18278000
   0.66698000  0.66840000  0.12259000
   0.83488000  0.83403000  0.18294000
   0.33558000  0.99863000  0.24353000
   0.66801000  0.33262000  0.24229000
   0.00448000  0.66739000  0.24217000
   0.49617321  0.83339642  0.30121845
   0.66521000  0.67351000  0.24327000
   0.66620000  0.99680000  0.00000000
   0.66735094  0.98997303  0.36389546
   0.33213000  0.33386000  0.00135000
   0.32498563  0.33224119  0.36514495
   0.67040000  0.33673000  0.00321000
   0.67480295  0.34116256  0.36785305
   0.66728000  0.99998000  0.12246000
   0.99806000  0.33495000  0.12235000
   0.33675000  0.33238000  0.12261000
   0.16842521  0.83402563  0.42849012
Direct configuration=     3
   0.00086000  0.99993000  0.24271000
   0.16612297  0.16508827  0.30310085
   0.50379427  0.16779072  0.30477602
   0.66822000  0.00107000  0.24272000
   0.83507273  0.16729471  0.30317211
   0.00044000  0.33497000  0.24240000
   0.16698329  0.50193412  0.30385365
   0.33469000  0.33305000  0.24267000
   0.50054622  0.49913349  0.30293323
   0.83459888  0.50425973  0.30083269
   0.16845254  0.83437975  0.30268043
   0.33342000  0.66555000  0.24261000
   0.83628134  0.83305702  0.30347452
   0.00064000  0.00119000  0.00199000
   0.98830673  0.01228686  0.35989688
   0.16843000  0.16962000  0.06269000
   0.33460000  0.00297000  0.00254000
   0.34551473  0.01448085  0.35997665
   0.50463000  0.16850000  0.06120000
   0.83272000  0.16670000  0.06193000
   0.00004000  0.33467000  0.00213000
   0.99974211  0.33184175  0.35992354
   0.16757000  0.49895000  0.06268000
   0.50099000  0.49896000  0.06206000
   0.83393000  0.50234000  0.06235000
   0.00121000  0.66785000  0.00188000
   0.99022915  0.65866501  0.35875583
   0.16792000  0.83462000  0.06228000
   0.33437000  0.66664000  0.00225000
   0.34803671  0.65545994  0.35992812
   0.50152000  0.83563000  0.06217000
   0.66753000  0.66705000  0.00175000
   0.66309010  0.66619229  0.36019516
   0.83293000  0.83584000  0.06235000
   0.00121000  0.00098000  0.12225000
   0.16700000  0.16811000  0.18239000
   0.33470000  0.00227000  0.12192000
   0.50174000  0.16716000  0.18263000
   0.83421000  0.16639000  0.18283000
   0.16964000  0.49868000  0.18209000
   0.50219000  0.50081000  0.18317000
   0.66741000  0.33395000  0.12233000
   0.83134000  0.50253000  0.18283000
   0.00132000  0.66795000  0.12253000
   0.16898000  0.83509000  0.18243000
   0.33446000  0.66703000  0.12223000
   0.49971000  0.83538000  0.18278000
   0.66698000  0.66840000  0.12259000
   0.83488000  0.83403000  0.18294000
   0.33558000  0.99863000  0.24353000
   0.66801000  0.33262000  0.24229000
   0.00448000  0.66739000  0.24217000
   0.49604320  0.83338443  0.30123432
   0.66521000  0.67351000  0.24327000
   0.66620000  0.99680000  0.00000000
   0.66734405  0.99066762  0.36386437
   0.33213000  0.33386000  0.00135000
   0.32563889  0.33218334  0.36514238
   0.67040000  0.33673000  0.00321000
   0.67406766  0.34051801  0.36812406
   0.66728000  0.99998000  0.12246000
   0.99806000  0.33495000  0.12235000
   0.33675000  0.33238000  0.12261000
   0.16836197  0.83386240  0.43099006
Direct configuration=     4
   0.00086000  0.99993000  0.24271000
   0.16626746  0.16590561  0.30282796
   0.50404477  0.16799005  0.30320264
   0.66822000  0.00107000  0.24272000
   0.83413369  0.16885329  0.30210042
   0.00044000  0.33497000  0.24240000
   0.16728938  0.50140578  0.30366371
   0.33469000  0.33305000  0.24267000
   0.50234622  0.49854961  0.30179412
   0.83285332  0.50266667  0.29991867
   0.16815806  0.83429262  0.30342398
   0.33342000  0.66555000  0.24261000
   0.83578896  0.83328474  0.30324184
   0.00064000  0.00119000  0.00199000
   0.98843334  0.01179887  0.36062695
   0.16843000  0.16962000  0.06269000
   0.33460000  0.00297000  0.00254000
   0.34493766  0.01342226  0.36095832
   0.50463000  0.16850000  0.06120000
   0.83272000  0.16670000  0.06193000
   0.00004000  0.33467000  0.00213000
   0.00089704  0.33186410  0.35991327
   0.16757000  0.49895000  0.06268000
   0.50099000  0.49896000  0.06206000
   0.83393000  0.50234000  0.06235000
   0.00121000  0.66785000  0.00188000
   0.98999891  0.65845958  0.35932616
   0.16792000  0.83462000  0.06228000
   0.33437000  0.66664000  0.00225000
   0.34783339  0.65563073  0.36057695
   0.50152000  0.83563000  0.06217000
   0.66753000  0.66705000  0.00175000
   0.66296218  0.66789405  0.36021598
   0.83293000  0.83584000  0.06235000
   0.00121000  0.00098000  0.12225000
   0.16700000  0.16811000  0.18239000
   0.33470000  0.00227000  0.12192000
   0.50174000  0.16716000  0.18263000
   0.83421000  0.16639000  0.18283000
   0.16964000  0.49868000  0.18209000
   0.50219000  0.50081000  0.18317000
   0.66741000  0.33395000  0.12233000
   0.83134000  0.50253000  0.18283000
   0.00132000  0.66795000  0.12253000
   0.16898000  0.83509000  0.18243000
   0.33446000  0.66703000  0.12223000
   0.49971000  0.83538000  0.18278000
   0.66698000  0.66840000  0.12259000
   0.83488000  0.83403000  0.18294000
   0.33558000  0.99863000  0.24353000
   0.66801000  0.33262000  0.24229000
   0.00448000  0.66739000  0.24217000
   0.49628921  0.83353140  0.30105417
   0.66521000  0.67351000  0.24327000
   0.66620000  0.99680000  0.00000000
   0.66750920  0.99306922  0.36366457
   0.33213000  0.33386000  0.00135000
   0.32786165  0.33213486  0.36498207
   0.67040000  0.33673000  0.00321000
   0.67193457  0.33864196  0.36896043
   0.66728000  0.99998000  0.12246000
   0.99806000  0.33495000  0.12235000
   0.33675000  0.33238000  0.12261000
   0.16855470  0.83392060  0.43269935
Direct configuration=     5
   0.00086000  0.99993000  0.24271000
   0.16643288  0.16684135  0.30251553
   0.50433156  0.16821825  0.30140134
   0.66822000  0.00107000  0.24272000
   0.83305861  0.17063767  0.30087348
   0.00044000  0.33497000  0.24240000
   0.16763982  0.50080091  0.30344624
   0.33469000  0.33305000  0.24267000
   0.50440698  0.49788115  0.30049000
   0.83085490  0.50084282  0.29887223
   0.16782091  0.83419287  0.30427525
   0.33342000  0.66555000  0.24261000
   0.83522525  0.83354544  0.30297545
   0.00064000  0.00119000  0.00199000
   0.98857830  0.01124018  0.36146277
   0.16843000  0.16962000  0.06269000
   0.33460000  0.00297000  0.00254000
   0.34427700  0.01221031  0.36208222
   0.50463000  0.16850000  0.06120000
   0.83272000  0.16670000  0.06193000
   0.00004000  0.33467000  0.00213000
   0.00221929  0.33188969  0.35990152
   0.16757000  0.49895000  0.06268000
   0.50099000  0.49896000  0.06206000
   0.83393000  0.50234000  0.06235000
   0.00121000  0.66785000  0.00188000
   0.98973532  0.65822440  0.35997912
   0.16792000  0.83462000  0.06228000
   0.33437000  0.66664000  0.00225000
   0.34760061  0.65582627  0.36131976
   0.50152000  0.83563000  0.06217000
   0.66753000  0.66705000  0.00175000
   0.66281573  0.66984234  0.36023981
   0.83293000  0.83584000  0.06235000
   0.00121000  0.00098000  0.12225000
   0.16700000  0.16811000  0.18239000
   0.33470000  0.00227000  0.12192000
   0.50174000  0.16716000  0.18263000
   0.83421000  0.16639000  0.18283000
   0.16964000  0.49868000  0.18209000
   0.50219000  0.50081000  0.18317000
   0.66741000  0.33395000  0.12233000
   0.83134000  0.50253000  0.18283000
   0.00132000  0.66795000  0.12253000
   0.16898000  0.83509000  0.18243000
   0.33446000  0.66703000  0.12223000
   0.49971000  0.83538000  0.18278000
   0.66698000  0.66840000  0.12259000
   0.83488000  0.83403000  0.18294000
   0.33558000  0.99863000  0.24353000
   0.66801000  0.33262000  0.24229000
   0.00448000  0.66739000  0.24217000
   0.49657086  0.83369965  0.30084791
   0.66521000  0.67351000  0.24327000
   0.66620000  0.99680000  0.00000000
   0.66769828  0.99581872  0.36343583
   0.33213000  0.33386000  0.00135000
   0.33040642  0.33207935  0.36479853
   0.67040000  0.33673000  0.00321000
   0.66949247  0.33649412  0.36991797
   0.66728000  0.99998000  0.12246000
   0.99806000  0.33495000  0.12235000
   0.33675000  0.33238000  0.12261000
   0.16877536  0.83398722  0.43465627
Direct configuration=     6
   0.00086000  0.99993000  0.24271000
   0.16649717  0.16611365  0.30279387
   0.50251816  0.16690081  0.30086959
   0.66822000  0.00107000  0.24272000
   0.83428156  0.17024239  0.30096384
   0.00044000  0.33497000  0.24240000
   0.16768149  0.50117626  0.30364621
   0.33469000  0.33305000  0.24267000
   0.50422842  0.49910418  0.30041771
   0.83080138  0.50110949  0.29938404
   0.16761777  0.83415487  0.30534110
   0.33342000  0.66555000  0.24261000
   0.83560239  0.83353180  0.30316697
   0.00064000  0.00119000  0.00199000
   0.98829132  0.01134609  0.36162999
   0.16843000  0.16962000  0.06269000
   0.33460000  0.00297000  0.00254000
   0.34444053  0.01212918  0.36237982
   0.50463000  0.16850000  0.06120000
   0.83272000  0.16670000  0.06193000
   0.00004000  0.33467000  0.00213000
   0.00263965  0.33190924  0.35975583
   0.16757000  0.49895000  0.06268000
   0.50099000  0.49896000  0.06206000
   0.83393000  0.50234000  0.06235000
   0.00121000  0.66785000  0.00188000
   0.98933826  0.65794799  0.36016491
   0.16792000  0.83462000  0.06228000
   0.33437000  0.66664000  0.00225000
   0.34786616  0.65542307  0.36155575
   0.50152000  0.83563000  0.06217000
   0.66753000  0.66705000  0.00175000
   0.66271471  0.67090447  0.36021319
   0.83293000  0.83584000  0.06235000
   0.00121000  0.00098000  0.12225000
   0.16700000  0.16811000  0.18239000
   0.33470000  0.00227000  0.12192000
   0.50174000  0.16716000  0.18263000
   0.83421000  0.16639000  0.18283000
   0.16964000  0.49868000  0.18209000
   0.50219000  0.50081000  0.18317000
   0.66741000  0.33395000  0.12233000
   0.83134000  0.50253000  0.18283000
   0.00132000  0.66795000  0.12253000
   0.16898000  0.83509000  0.18243000
   0.33446000  0.66703000  0.12223000
   0.49971000  0.83538000  0.18278000
   0.66698000  0.66840000  0.12259000
   0.83488000  0.83403000  0.18294000
   0.33558000  0.99863000  0.24353000
   0.66801000  0.33262000  0.24229000
   0.00448000  0.66739000  0.24217000
   0.49589921  0.83380279  0.30098444
   0.66521000  0.67351000  0.24327000
   0.66620000  0.99680000  0.00000000
   0.66794522  0.99863277  0.36316234
   0.33213000  0.33386000  0.00135000
   0.33306369  0.33206079  0.36449012
   0.67040000  0.33673000  0.00321000
   0.66751172  0.33488515  0.37047619
   0.66728000  0.99998000  0.12246000
   0.99806000  0.33495000  0.12235000
   0.33675000  0.33238000  0.12261000
   0.16869293  0.83374282  0.43519189
Direct configuration=     7
   0.00086000  0.99993000  0.24271000
   0.16659148  0.16504617  0.30320217
   0.49985800  0.16496822  0.30008955
   0.66822000  0.00107000  0.24272000
   0.83607555  0.16966253  0.30109638
   0.00044000  0.33497000  0.24240000
   0.16774262  0.50172687  0.30393954
   0.33469000  0.33305000  0.24267000
   0.50396647  0.50089829  0.30031168
   0.83072289  0.50150067  0.30013484
   0.16731977  0.83409913  0.30690463
   0.33342000  0.66555000  0.24261000
   0.83615562  0.83351179  0.30344791
   0.00064000  0.00119000  0.00199000
   0.98787034  0.01150145  0.36187528
   0.16843000  0.16962000  0.06269000
   0.33460000  0.00297000  0.00254000
   0.34468043  0.01201017  0.36281638
   0.50463000  0.16850000  0.06120000
   0.83272000  0.16670000  0.06193000
   0.00004000  0.33467000  0.00213000
   0.00325629  0.33193792  0.35954213
   0.16757000  0.49895000  0.06268000
   0.50099000  0.49896000  0.06206000
   0.83393000  0.50234000  0.06235000
   0.00121000  0.66785000  0.00188000
   0.98875580  0.65754251  0.36043745
   0.16792000  0.83462000  0.06228000
   0.33437000  0.66664000  0.00225000
   0.34825571  0.65483159  0.36190194
   0.50152000  0.83563000  0.06217000
   0.66753000  0.66705000  0.00175000
   0.66256651  0.67246255  0.36017415
   0.83293000  0.83584000  0.06235000
   0.00121000  0.00098000  0.12225000
   0.16700000  0.16811000  0.18239000
   0.33470000  0.00227000  0.12192000
   0.50174000  0.16716000  0.18263000
   0.83421000  0.16639000  0.18283000
   0.16964000  0.49868000  0.18209000
   0.50219000  0.50081000  0.18317000
   0.66741000  0.33395000  0.12233000
   0.83134000  0.50253000  0.18283000
   0.00132000  0.66795000  0.12253000
   0.16898000  0.83509000  0.18243000
   0.33446000  0.66703000  0.12223000
   0.49971000  0.83538000  0.18278000
   0.66698000  0.66840000  0.12259000
   0.83488000  0.83403000  0.18294000
   0.33558000  0.99863000  0.24353000
   0.66801000  0.33262000  0.24229000
   0.00448000  0.66739000  0.24217000
   0.49491393  0.83395408  0.30118472
   0.66521000  0.67351000  0.24327000
   0.66620000  0.99680000  0.00000000
   0.66830745  0.00276081  0.36276115
   0.33213000  0.33386000  0.00135000
   0.33696174  0.33203355  0.36403771
   0.67040000  0.33673000  0.00321000
   0.66460608  0.33252488  0.37129505
   0.66728000  0.99998000  0.12246000
   0.99806000  0.33495000  0.12235000
   0.33675000  0.33238000  0.12261000
   0.16857201  0.83338430  0.43597761
Direct configuration=     8
   0.00086000  0.99993000  0.24271000
   0.16661713  0.16475582  0.30331323
   0.49913445  0.16444255  0.29987738
   0.66822000  0.00107000  0.24272000
   0.83656352  0.16950481  0.30113243
   0.00044000  0.33497000  0.24240000
   0.16775924  0.50187663  0.30401933
   0.33469000  0.33305000  0.24267000
   0.50389522  0.50138629  0.30028283
   0.83070154  0.50160707  0.30033905
   0.16723871  0.83408396  0.30732990
   0.33342000  0.66555000  0.24261000
   0.83630610  0.83350635  0.30352432
   0.00064000  0.00119000  0.00199000
   0.98775583  0.01154370  0.36194200
   0.16843000  0.16962000  0.06269000
   0.33460000  0.00297000  0.00254000
   0.34474568  0.01197780  0.36293513
   0.50463000  0.16850000  0.06120000
   0.83272000  0.16670000  0.06193000
   0.00004000  0.33467000  0.00213000
   0.00342402  0.33194572  0.35948400
   0.16757000  0.49895000  0.06268000
   0.50099000  0.49896000  0.06206000
   0.83393000  0.50234000  0.06235000
   0.00121000  0.66785000  0.00188000
   0.98859737  0.65743223  0.36051158
   0.16792000  0.83462000  0.06228000
   0.33437000  0.66664000  0.00225000
   0.34836167  0.65467071  0.36199611
   0.50152000  0.83563000  0.06217000
   0.66753000  0.66705000  0.00175000
   0.66252620  0.67288635  0.36016353
   0.83293000  0.83584000  0.06235000
   0.00121000  0.00098000  0.12225000
   0.16700000  0.16811000  0.18239000
   0.33470000  0.00227000  0.12192000
   0.50174000  0.16716000  0.18263000
   0.83421000  0.16639000  0.18283000
   0.16964000  0.49868000  0.18209000
   0.50219000  0.50081000  0.18317000
   0.66741000  0.33395000  0.12233000
   0.83134000  0.50253000  0.18283000
   0.00132000  0.66795000  0.12253000
   0.16898000  0.83509000  0.18243000
   0.33446000  0.66703000  0.12223000
   0.49971000  0.83538000  0.18278000
   0.66698000  0.66840000  0.12259000
   0.83488000  0.83403000  0.18294000
   0.33558000  0.99863000  0.24353000
   0.66801000  0.33262000  0.24229000
   0.00448000  0.66739000  0.24217000
   0.49464593  0.83399524  0.30123920
   0.66521000  0.67351000  0.24327000
   0.66620000  0.99680000  0.00000000
   0.66840598  0.00388363  0.36265202
   0.33213000  0.33386000  0.00135000
   0.33802201  0.33202615  0.36391465
   0.67040000  0.33673000  0.00321000
   0.66381575  0.33188289  0.37151778
   0.66728000  0.99998000  0.12246000
   0.99806000  0.33495000  0.12235000
   0.33675000  0.33238000  0.12261000
   0.16853912  0.83328678  0.43619132
Direct configuration=     9
   0.00086000  0.99993000  0.24271000
   0.16722187  0.16478781  0.30345805
   0.49865563  0.16398986  0.29991064
   0.66822000  0.00107000  0.24272000
   0.83626852  0.17016881  0.30131058
   0.00044000  0.33497000  0.24240000
   0.16798258  0.50158645  0.30416262
   0.33469000  0.33305000  0.24267000
   0.50416173  0.50147705  0.30056549
   0.83011667  0.50072727  0.30083993
   0.16742880  0.83391906  0.30719836
   0.33342000  0.66555000  0.24261000
   0.83582713  0.83387699  0.30362974
   0.00064000  0.00119000  0.00199000
   0.98810154  0.01089304  0.36250987
   0.16843000  0.16962000  0.06269000
   0.33460000  0.00297000  0.00254000
   0.34518859  0.01196136  0.36334458
   0.50463000  0.16850000  0.06120000
   0.83272000  0.16670000  0.06193000
   0.00004000  0.33467000  0.00213000
   0.00320095  0.33198827  0.35974215
   0.16757000  0.49895000  0.06268000
   0.50099000  0.49896000  0.06206000
   0.83393000  0.50234000  0.06235000
   0.00121000  0.66785000  0.00188000
   0.98888227  0.65766574  0.36111557
   0.16792000  0.83462000  0.06228000
   0.33437000  0.66664000  0.00225000
   0.34825326  0.65450979  0.36244650
   0.50152000  0.83563000  0.06217000
   0.66753000  0.66705000  0.00175000
   0.66222194  0.67347037  0.36041769
   0.83293000  0.83584000  0.06235000
   0.00121000  0.00098000  0.12225000
   0.16700000  0.16811000  0.18239000
   0.33470000  0.00227000  0.12192000
   0.50174000  0.16716000  0.18263000
   0.83421000  0.16639000  0.18283000
   0.16964000  0.49868000  0.18209000
   0.50219000  0.50081000  0.18317000
   0.66741000  0.33395000  0.12233000
   0.83134000  0.50253000  0.18283000
   0.00132000  0.66795000  0.12253000
   0.16898000  0.83509000  0.18243000
   0.33446000  0.66703000  0.12223000
   0.49971000  0.83538000  0.18278000
   0.66698000  0.66840000  0.12259000
   0.83488000  0.83403000  0.18294000
   0.33558000  0.99863000  0.24353000
   0.66801000  0.33262000  0.24229000
   0.00448000  0.66739000  0.24217000
   0.49447654  0.83449028  0.30126911
   0.66521000  0.67351000  0.24327000
   0.66620000  0.99680000  0.00000000
   0.66836039  0.00656864  0.36236676
   0.33213000  0.33386000  0.00135000
   0.34025025  0.33211209  0.36357275
   0.67040000  0.33673000  0.00321000
   0.66196951  0.33050280  0.37134444
   0.66728000  0.99998000  0.12246000
   0.99806000  0.33495000  0.12235000
   0.33675000  0.33238000  0.12261000
   0.16824831  0.83285315  0.43619285
Direct configuration=    10
   0.00086000  0.99993000  0.24271000
   0.16761181  0.16480844  0.30355142
   0.49834689  0.16369796  0.29993208
   0.66822000  0.00107000  0.24272000
   0.83607830  0.17059694  0.30142545
   0.00044000  0.33497000  0.24240000
   0.16812659  0.50139934  0.30425502
   0.33469000  0.33305000  0.24267000
   0.50433357  0.50153557  0.30074774
   0.82973955  0.50015997  0.30116289
   0.16755137  0.83381272  0.30711353
   0.33342000  0.66555000  0.24261000
   0.83551829  0.83411598  0.30369772
   0.00064000  0.00119000  0.00199000
   0.98832445  0.01047350  0.36287603
   0.16843000  0.16962000  0.06269000
   0.33460000  0.00297000  0.00254000
   0.34547417  0.01195077  0.36360859
   0.50463000  0.16850000  0.06120000
   0.83272000  0.16670000  0.06193000
   0.00004000  0.33467000  0.00213000
   0.00305711  0.33201570  0.35990860
   0.16757000  0.49895000  0.06268000
   0.50099000  0.49896000  0.06206000
   0.83393000  0.50234000  0.06235000
   0.00121000  0.66785000  0.00188000
   0.98906597  0.65781631  0.36150501
   0.16792000  0.83462000  0.06228000
   0.33437000  0.66664000  0.00225000
   0.34818336  0.65440604  0.36273691
   0.50152000  0.83563000  0.06217000
   0.66753000  0.66705000  0.00175000
   0.66202575  0.67384694  0.36058158
   0.83293000  0.83584000  0.06235000
   0.00121000  0.00098000  0.12225000
   0.16700000  0.16811000  0.18239000
   0.33470000  0.00227000  0.12192000
   0.50174000  0.16716000  0.18263000
   0.83421000  0.16639000  0.18283000
   0.16964000  0.49868000  0.18209000
   0.50219000  0.50081000  0.18317000
   0.66741000  0.33395000  0.12233000
   0.83134000  0.50253000  0.18283000
   0.00132000  0.66795000  0.12253000
   0.16898000  0.83509000  0.18243000
   0.33446000  0.66703000  0.12223000
   0.49971000  0.83538000  0.18278000
   0.66698000  0.66840000  0.12259000
   0.83488000  0.83403000  0.18294000
   0.33558000  0.99863000  0.24353000
   0.66801000  0.33262000  0.24229000
   0.00448000  0.66739000  0.24217000
   0.49436731  0.83480948  0.30128840
   0.66521000  0.67351000  0.24327000
   0.66620000  0.99680000  0.00000000
   0.66833099  0.00829992  0.36218283
   0.33213000  0.33386000  0.00135000
   0.34168700  0.33216750  0.36335230
   0.67040000  0.33673000  0.00321000
   0.66077907  0.32961292  0.37123267
   0.66728000  0.99998000  0.12246000
   0.99806000  0.33495000  0.12235000
   0.33675000  0.33238000  0.12261000
   0.16806080  0.83257354  0.43619383
Direct configuration=    11
   0.00086000  0.99993000  0.24271000
   0.16755764  0.16480557  0.30353845
   0.49838978  0.16373851  0.29992910
   0.66822000  0.00107000  0.24272000
   0.83610473  0.17053746  0.30140949
   0.00044000  0.33497000  0.24240000
   0.16810658  0.50142533  0.30424218
   0.33469000  0.33305000  0.24267000
   0.50430970  0.50152744  0.30072242
   0.82979194  0.50023879  0.30111803
   0.16753434  0.83382749  0.30712532
   0.33342000  0.66555000  0.24261000
   0.83556119  0.83408278  0.30368827
   0.00064000  0.00119000  0.00199000
   0.98829349  0.01053178  0.36282517
   0.16843000  0.16962000  0.06269000
   0.33460000  0.00297000  0.00254000
   0.34543449  0.01195224  0.36357191
   0.50463000  0.16850000  0.06120000
   0.83272000  0.16670000  0.06193000
   0.00004000  0.33467000  0.00213000
   0.00307709  0.33201189  0.35988548
   0.16757000  0.49895000  0.06268000
   0.50099000  0.49896000  0.06206000
   0.83393000  0.50234000  0.06235000
   0.00121000  0.66785000  0.00188000
   0.98904045  0.65779539  0.36145091
   0.16792000  0.83462000  0.06228000
   0.33437000  0.66664000  0.00225000
   0.34819307  0.65442045  0.36269656
   0.50152000  0.83563000  0.06217000
   0.66753000  0.66705000  0.00175000
   0.66205301  0.67379463  0.36055881
   0.83293000  0.83584000  0.06235000
   0.00121000  0.00098000  0.12225000
   0.16700000  0.16811000  0.18239000
   0.33470000  0.00227000  0.12192000
   0.50174000  0.16716000  0.18263000
   0.83421000  0.16639000  0.18283000
   0.16964000  0.49868000  0.18209000
   0.50219000  0.50081000  0.18317000
   0.66741000  0.33395000  0.12233000
   0.83134000  0.50253000  0.18283000
   0.00132000  0.66795000  0.12253000
   0.16898000  0.83509000  0.18243000
   0.33446000  0.66703000  0.12223000
   0.49971000  0.83538000  0.18278000
   0.66698000  0.66840000  0.12259000
   0.83488000  0.83403000  0.18294000
   0.33558000  0.99863000  0.24353000
   0.66801000  0.33262000  0.24229000
   0.00448000  0.66739000  0.24217000
   0.49438249  0.83476514  0.30128572
   0.66521000  0.67351000  0.24327000
   0.66620000  0.99680000  0.00000000
   0.66833507  0.00805940  0.36220838
   0.33213000  0.33386000  0.00135000
   0.34148740  0.33215980  0.36338292
   0.67040000  0.33673000  0.00321000
   0.66094445  0.32973655  0.37124820
   0.66728000  0.99998000  0.12246000
   0.99806000  0.33495000  0.12235000
   0.33675000  0.33238000  0.12261000
   0.16808685  0.83261239  0.43619369
Direct configuration=    12
   0.00086000  0.99993000  0.24271000
   0.16730882  0.16500517  0.30370832
   0.49858137  0.16380750  0.29983403
   0.66822000  0.00107000  0.24272000
   0.83654013  0.17041218  0.30154346
   0.00044000  0.33497000  0.24240000
   0.16787188  0.50125132  0.30444436
   0.33469000  0.33305000  0.24267000
   0.50437344  0.50182989  0.30079052
   0.83001344  0.50053649  0.30127472
   0.16741240  0.83374416  0.30678485
   0.33342000  0.66555000  0.24261000
   0.83545390  0.83397573  0.30392174
   0.00064000  0.00119000  0.00199000
   0.98822783  0.01040084  0.36271829
   0.16843000  0.16962000  0.06269000
   0.33460000  0.00297000  0.00254000
   0.34586049  0.01206358  0.36371270
   0.50463000  0.16850000  0.06120000
   0.83272000  0.16670000  0.06193000
   0.00004000  0.33467000  0.00213000
   0.00258883  0.33187779  0.36015354
   0.16757000  0.49895000  0.06268000
   0.50099000  0.49896000  0.06206000
   0.83393000  0.50234000  0.06235000
   0.00121000  0.66785000  0.00188000
   0.98902719  0.65783019  0.36130928
   0.16792000  0.83462000  0.06228000
   0.33437000  0.66664000  0.00225000
   0.34805865  0.65422058  0.36276325
   0.50152000  0.83563000  0.06217000
   0.66753000  0.66705000  0.00175000
   0.66177864  0.67370734  0.36079656
   0.83293000  0.83584000  0.06235000
   0.00121000  0.00098000  0.12225000
   0.16700000  0.16811000  0.18239000
   0.33470000  0.00227000  0.12192000
   0.50174000  0.16716000  0.18263000
   0.83421000  0.16639000  0.18283000
   0.16964000  0.49868000  0.18209000
   0.50219000  0.50081000  0.18317000
   0.66741000  0.33395000  0.12233000
   0.83134000  0.50253000  0.18283000
   0.00132000  0.66795000  0.12253000
   0.16898000  0.83509000  0.18243000
   0.33446000  0.66703000  0.12223000
   0.49971000  0.83538000  0.18278000
   0.66698000  0.66840000  0.12259000
   0.83488000  0.83403000  0.18294000
   0.33558000  0.99863000  0.24353000
   0.66801000  0.33262000  0.24229000
   0.00448000  0.66739000  0.24217000
   0.49463638  0.83462915  0.30134883
   0.66521000  0.67351000  0.24327000
   0.66620000  0.99680000  0.00000000
   0.66834908  0.00881908  0.36220522
   0.33213000  0.33386000  0.00135000
   0.34184803  0.33231034  0.36338299
   0.67040000  0.33673000  0.00321000
   0.66030405  0.32945235  0.37106751
   0.66728000  0.99998000  0.12246000
   0.99806000  0.33495000  0.12235000
   0.33675000  0.33238000  0.12261000
   0.16819144  0.83237756  0.43629131
Direct configuration=    13
   0.00086000  0.99993000  0.24271000
   0.16714549  0.16513619  0.30381984
   0.49870715  0.16385279  0.29977163
   0.66822000  0.00107000  0.24272000
   0.83682595  0.17032994  0.30163141
   0.00044000  0.33497000  0.24240000