  63  63   0   0
  0.2715385E+02  0.8532700E-09  0.8497000E-09  0.2359500E-08  0.5000000E-15
  1.000000000000000E-004
  CAR 
 ni3al                                   
      5.61359645    -45.54354086  301      1.01404256      1.00000000
    -45.544  0.0000E+00  0.0000E+00  0.0000E+00  0.0000E+00
    -45.373  0.0000E+00  0.0000E+00  0.0000E+00  0.0000E+00
    -45.202  0.0000E+00  0.0000E+00  0.0000E+00  0.0000E+00
    -45.032  0.0000E+00  0.0000E+00  0.0000E+00  0.0000E+00
    -44.861  0.0000E+00  0.0000E+00  0.0000E+00  0.0000E+00
    -44.691  0.0000E+00  0.0000E+00  0.0000E+00  0.0000E+00
    -44.520  0.0000E+00  0.0000E+00  0.0000E+00  0.0000E+00
    -44.350  0.0000E+00  0.0000E+00  0.0000E+00  0.0000E+00
    -44.179  0.0000E+00  0.0000E+00  0.0000E+00  0.0000E+00
    -44.009  0.0000E+00  0.0000E+00  0.0000E+00  0.0000E+00
    -43.838  0.0000E+00  0.0000E+00  0.0000E+00  0.0000E+00
    -43.668  0.0000E+00  0.0000E+00  0.0000E+00  0.0000E+00
    -43.497  0.0000E+00  0.0000E+00  0.0000E+00  0.0000E+00
    -43.327  0.0000E+00  0.0000E+00  0.0000E+00  0.0000E+00
    -43.156  0.0000E+00  0.1759E+02  0.0000E+00  0.3000E+01
    -42.986  0.0000E+00  0.8796E+02  0.0000E+00  0.1800E+02
    -42.815  0.5864E+01  0.0000E+00  0.1000E+01  0.1800E+02
    -42.645  0.8210E+02  0.1759E+02  0.1500E+02  0.2100E+02
    -42.474  0.0000E+00  0.1759E+02  0.1500E+02  0.2400E+02
    -42.304  0.0000E+00  0.0000E+00  0.1500E+02  0.2400E+02
    -42.133  0.5864E+01  0.5864E+01  0.1600E+02  0.2500E+02
    -41.963  0.2346E+02  0.1173E+02  0.2000E+02  0.2700E+02
    -41.792  0.1173E+02  0.0000E+00  0.2200E+02  0.2700E+02
    -41.621  0.9969E+02  0.0000E+00  0.3900E+02  0.2700E+02
    -41.451  0.0000E+00  0.0000E+00  0.3900E+02  0.2700E+02
    -41.280  0.0000E+00  0.0000E+00  0.3900E+02  0.2700E+02
    -41.110  0.0000E+00  0.0000E+00  0.3900E+02  0.2700E+02
    -40.939  0.0000E+00  0.0000E+00  0.3900E+02  0.2700E+02
    -40.769  0.0000E+00  0.0000E+00  0.3900E+02  0.2700E+02
    -40.598  0.0000E+00  0.0000E+00  0.3900E+02  0.2700E+02
    -40.428  0.0000E+00  0.5864E+01  0.3900E+02  0.2800E+02
    -40.257  0.0000E+00  0.5864E+01  0.3900E+02  0.2900E+02
    -40.087  0.1173E+02  0.1173E+02  0.4100E+02  0.3100E+02
    -39.916  0.5864E+01  0.1173E+02  0.4200E+02  0.3300E+02
    -39.746  0.0000E+00  0.2932E+02  0.4200E+02  0.3800E+02
    -39.575  0.0000E+00  0.1759E+02  0.4200E+02  0.4100E+02
    -39.405  0.0000E+00  0.5864E+01  0.4200E+02  0.4200E+02
    -39.234  0.0000E+00  0.0000E+00  0.4200E+02  0.4200E+02
    -39.064  0.0000E+00  0.0000E+00  0.4200E+02  0.4200E+02
    -38.893  0.0000E+00  0.0000E+00  0.4200E+02  0.4200E+02
    -38.723  0.0000E+00  0.0000E+00  0.4200E+02  0.4200E+02
    -38.552  0.0000E+00  0.0000E+00  0.4200E+02  0.4200E+02
    -38.382  0.0000E+00  0.0000E+00  0.4200E+02  0.4200E+02
    -38.211  0.0000E+00  0.0000E+00  0.4200E+02  0.4200E+02
    -38.040  0.0000E+00  0.0000E+00  0.4200E+02  0.4200E+02
    -37.870  0.0000E+00  0.0000E+00  0.4200E+02  0.4200E+02
    -37.699  0.0000E+00  0.0000E+00  0.4200E+02  0.4200E+02
    -37.529  0.0000E+00  0.0000E+00  0.4200E+02  0.4200E+02
    -37.358  0.0000E+00  0.0000E+00  0.4200E+02  0.4200E+02
    -37.188  0.0000E+00  0.0000E+00  0.4200E+02  0.4200E+02
    -37.017  0.0000E+00  0.0000E+00  0.4200E+02  0.4200E+02
    -36.847  0.0000E+00  0.0000E+00  0.4200E+02  0.4200E+02
    -36.676  0.0000E+00  0.0000E+00  0.4200E+02  0.4200E+02
    -36.506  0.0000E+00  0.0000E+00  0.4200E+02  0.4200E+02
    -36.335  0.0000E+00  0.0000E+00  0.4200E+02  0.4200E+02
    -36.165  0.0000E+00  0.0000E+00  0.4200E+02  0.4200E+02
    -35.994  0.0000E+00  0.0000E+00  0.4200E+02  0.4200E+02
    -35.824  0.0000E+00  0.0000E+00  0.4200E+02  0.4200E+02
    -35.653  0.0000E+00  0.0000E+00  0.4200E+02  0.4200E+02
    -35.483  0.0000E+00  0.0000E+00  0.4200E+02  0.4200E+02
    -35.312  0.0000E+00  0.0000E+00  0.4200E+02  0.4200E+02
    -35.142  0.0000E+00  0.0000E+00  0.4200E+02  0.4200E+02
    -34.971  0.0000E+00  0.0000E+00  0.4200E+02  0.4200E+02
    -34.801  0.0000E+00  0.0000E+00  0.4200E+02  0.4200E+02
    -34.630  0.0000E+00  0.0000E+00  0.4200E+02  0.4200E+02
    -34.459  0.0000E+00  0.0000E+00  0.4200E+02  0.4200E+02
    -34.289  0.0000E+00  0.0000E+00  0.4200E+02  0.4200E+02
    -34.118  0.0000E+00  0.0000E+00  0.4200E+02  0.4200E+02
    -33.948  0.0000E+00  0.0000E+00  0.4200E+02  0.4200E+02
    -33.777  0.0000E+00  0.0000E+00  0.4200E+02  0.4200E+02
    -33.607  0.0000E+00  0.0000E+00  0.4200E+02  0.4200E+02
    -33.436  0.0000E+00  0.0000E+00  0.4200E+02  0.4200E+02
    -33.266  0.0000E+00  0.0000E+00  0.4200E+02  0.4200E+02
    -33.095  0.0000E+00  0.0000E+00  0.4200E+02  0.4200E+02
    -32.925  0.0000E+00  0.0000E+00  0.4200E+02  0.4200E+02
    -32.754  0.0000E+00  0.0000E+00  0.4200E+02  0.4200E+02
    -32.584  0.0000E+00  0.0000E+00  0.4200E+02  0.4200E+02
    -32.413  0.0000E+00  0.0000E+00  0.4200E+02  0.4200E+02
    -32.243  0.0000E+00  0.0000E+00  0.4200E+02  0.4200E+02
    -32.072  0.0000E+00  0.0000E+00  0.4200E+02  0.4200E+02
    -31.902  0.0000E+00  0.0000E+00  0.4200E+02  0.4200E+02
    -31.731  0.0000E+00  0.0000E+00  0.4200E+02  0.4200E+02
    -31.561  0.0000E+00  0.0000E+00  0.4200E+02  0.4200E+02
    -31.390  0.0000E+00  0.0000E+00  0.4200E+02  0.4200E+02
    -31.220  0.0000E+00  0.0000E+00  0.4200E+02  0.4200E+02
    -31.049  0.0000E+00  0.0000E+00  0.4200E+02  0.4200E+02
    -30.878  0.0000E+00  0.0000E+00  0.4200E+02  0.4200E+02
    -30.708  0.0000E+00  0.0000E+00  0.4200E+02  0.4200E+02
    -30.537  0.0000E+00  0.0000E+00  0.4200E+02  0.4200E+02
    -30.367  0.0000E+00  0.0000E+00  0.4200E+02  0.4200E+02
    -30.196  0.0000E+00  0.0000E+00  0.4200E+02  0.4200E+02
    -30.026  0.0000E+00  0.0000E+00  0.4200E+02  0.4200E+02
    -29.855  0.0000E+00  0.0000E+00  0.4200E+02  0.4200E+02
    -29.685  0.0000E+00  0.0000E+00  0.4200E+02  0.4200E+02
    -29.514  0.0000E+00  0.0000E+00  0.4200E+02  0.4200E+02
    -29.344  0.0000E+00  0.0000E+00  0.4200E+02  0.4200E+02
    -29.173  0.0000E+00  0.0000E+00  0.4200E+02  0.4200E+02
    -29.003  0.0000E+00  0.0000E+00  0.4200E+02  0.4200E+02
    -28.832  0.0000E+00  0.0000E+00  0.4200E+02  0.4200E+02
    -28.662  0.0000E+00  0.0000E+00  0.4200E+02  0.4200E+02
    -28.491  0.0000E+00  0.0000E+00  0.4200E+02  0.4200E+02
    -28.321  0.0000E+00  0.0000E+00  0.4200E+02  0.4200E+02
    -28.150  0.0000E+00  0.0000E+00  0.4200E+02  0.4200E+02
    -27.980  0.0000E+00  0.0000E+00  0.4200E+02  0.4200E+02
    -27.809  0.0000E+00  0.0000E+00  0.4200E+02  0.4200E+02
    -27.639  0.0000E+00  0.0000E+00  0.4200E+02  0.4200E+02
    -27.468  0.0000E+00  0.0000E+00  0.4200E+02  0.4200E+02
    -27.297  0.0000E+00  0.0000E+00  0.4200E+02  0.4200E+02
    -27.127  0.0000E+00  0.0000E+00  0.4200E+02  0.4200E+02
    -26.956  0.0000E+00  0.0000E+00  0.4200E+02  0.4200E+02
    -26.786  0.0000E+00  0.0000E+00  0.4200E+02  0.4200E+02
    -26.615  0.0000E+00  0.0000E+00  0.4200E+02  0.4200E+02
    -26.445  0.0000E+00  0.0000E+00  0.4200E+02  0.4200E+02
    -26.274  0.0000E+00  0.0000E+00  0.4200E+02  0.4200E+02
    -26.104  0.0000E+00  0.0000E+00  0.4200E+02  0.4200E+02
    -25.933  0.0000E+00  0.0000E+00  0.4200E+02  0.4200E+02
    -25.763  0.0000E+00  0.0000E+00  0.4200E+02  0.4200E+02
    -25.592  0.0000E+00  0.0000E+00  0.4200E+02  0.4200E+02
    -25.422  0.0000E+00  0.0000E+00  0.4200E+02  0.4200E+02
    -25.251  0.0000E+00  0.0000E+00  0.4200E+02  0.4200E+02
    -25.081  0.0000E+00  0.0000E+00  0.4200E+02  0.4200E+02
    -24.910  0.0000E+00  0.0000E+00  0.4200E+02  0.4200E+02
    -24.740  0.0000E+00  0.0000E+00  0.4200E+02  0.4200E+02
    -24.569  0.0000E+00  0.0000E+00  0.4200E+02  0.4200E+02
    -24.399  0.0000E+00  0.0000E+00  0.4200E+02  0.4200E+02
    -24.228  0.0000E+00  0.0000E+00  0.4200E+02  0.4200E+02
    -24.058  0.0000E+00  0.0000E+00  0.4200E+02  0.4200E+02
    -23.887  0.0000E+00  0.0000E+00  0.4200E+02  0.4200E+02
    -23.716  0.0000E+00  0.0000E+00  0.4200E+02  0.4200E+02
    -23.546  0.0000E+00  0.0000E+00  0.4200E+02  0.4200E+02
    -23.375  0.0000E+00  0.0000E+00  0.4200E+02  0.4200E+02
    -23.205  0.0000E+00  0.0000E+00  0.4200E+02  0.4200E+02
    -23.034  0.0000E+00  0.0000E+00  0.4200E+02  0.4200E+02
    -22.864  0.0000E+00  0.0000E+00  0.4200E+02  0.4200E+02
    -22.693  0.0000E+00  0.0000E+00  0.4200E+02  0.4200E+02
    -22.523  0.0000E+00  0.0000E+00  0.4200E+02  0.4200E+02
    -22.352  0.0000E+00  0.0000E+00  0.4200E+02  0.4200E+02
    -22.182  0.0000E+00  0.0000E+00  0.4200E+02  0.4200E+02
    -22.011  0.0000E+00  0.0000E+00  0.4200E+02  0.4200E+02
    -21.841  0.0000E+00  0.0000E+00  0.4200E+02  0.4200E+02
    -21.670  0.0000E+00  0.0000E+00  0.4200E+02  0.4200E+02
    -21.500  0.0000E+00  0.0000E+00  0.4200E+02  0.4200E+02
    -21.329  0.0000E+00  0.0000E+00  0.4200E+02  0.4200E+02
    -21.159  0.0000E+00  0.0000E+00  0.4200E+02  0.4200E+02
    -20.988  0.0000E+00  0.0000E+00  0.4200E+02  0.4200E+02
    -20.818  0.0000E+00  0.0000E+00  0.4200E+02  0.4200E+02
    -20.647  0.0000E+00  0.0000E+00  0.4200E+02  0.4200E+02
    -20.477  0.0000E+00  0.0000E+00  0.4200E+02  0.4200E+02
    -20.306  0.0000E+00  0.0000E+00  0.4200E+02  0.4200E+02
    -20.135  0.0000E+00  0.0000E+00  0.4200E+02  0.4200E+02
    -19.965  0.0000E+00  0.0000E+00  0.4200E+02  0.4200E+02
    -19.794  0.0000E+00  0.0000E+00  0.4200E+02  0.4200E+02
    -19.624  0.0000E+00  0.0000E+00  0.4200E+02  0.4200E+02
    -19.453  0.0000E+00  0.0000E+00  0.4200E+02  0.4200E+02
    -19.283  0.0000E+00  0.0000E+00  0.4200E+02  0.4200E+02
    -19.112  0.0000E+00  0.0000E+00  0.4200E+02  0.4200E+02
    -18.942  0.0000E+00  0.0000E+00  0.4200E+02  0.4200E+02
    -18.771  0.0000E+00  0.0000E+00  0.4200E+02  0.4200E+02
    -18.601  0.0000E+00  0.0000E+00  0.4200E+02  0.4200E+02
    -18.430  0.0000E+00  0.0000E+00  0.4200E+02  0.4200E+02
    -18.260  0.0000E+00  0.0000E+00  0.4200E+02  0.4200E+02
    -18.089  0.0000E+00  0.0000E+00  0.4200E+02  0.4200E+02
    -17.919  0.0000E+00  0.0000E+00  0.4200E+02  0.4200E+02
    -17.748  0.0000E+00  0.0000E+00  0.4200E+02  0.4200E+02
    -17.578  0.0000E+00  0.0000E+00  0.4200E+02  0.4200E+02
    -17.407  0.0000E+00  0.0000E+00  0.4200E+02  0.4200E+02
    -17.237  0.0000E+00  0.0000E+00  0.4200E+02  0.4200E+02
    -17.066  0.0000E+00  0.0000E+00  0.4200E+02  0.4200E+02
    -16.896  0.0000E+00  0.0000E+00  0.4200E+02  0.4200E+02
    -16.725  0.0000E+00  0.0000E+00  0.4200E+02  0.4200E+02
    -16.554  0.0000E+00  0.0000E+00  0.4200E+02  0.4200E+02
    -16.384  0.0000E+00  0.0000E+00  0.4200E+02  0.4200E+02
    -16.213  0.0000E+00  0.0000E+00  0.4200E+02  0.4200E+02
    -16.043  0.0000E+00  0.0000E+00  0.4200E+02  0.4200E+02
    -15.872  0.0000E+00  0.0000E+00  0.4200E+02  0.4200E+02
    -15.702  0.0000E+00  0.0000E+00  0.4200E+02  0.4200E+02
    -15.531  0.0000E+00  0.0000E+00  0.4200E+02  0.4200E+02
    -15.361  0.2346E+02  0.2932E+02  0.4600E+02  0.4700E+02
    -15.190  0.5864E+01  0.0000E+00  0.4700E+02  0.4700E+02
    -15.020  0.0000E+00  0.0000E+00  0.4700E+02  0.4700E+02
    -14.849  0.0000E+00  0.0000E+00  0.4700E+02  0.4700E+02
    -14.679  0.0000E+00  0.0000E+00  0.4700E+02  0.4700E+02
    -14.508  0.0000E+00  0.0000E+00  0.4700E+02  0.4700E+02
    -14.338  0.0000E+00  0.0000E+00  0.4700E+02  0.4700E+02
    -14.167  0.0000E+00  0.0000E+00  0.4700E+02  0.4700E+02
    -13.997  0.0000E+00  0.0000E+00  0.4700E+02  0.4700E+02
    -13.826  0.0000E+00  0.0000E+00  0.4700E+02  0.4700E+02
    -13.656  0.0000E+00  0.0000E+00  0.4700E+02  0.4700E+02
    -13.485  0.0000E+00  0.0000E+00  0.4700E+02  0.4700E+02
    -13.315  0.0000E+00  0.0000E+00  0.4700E+02  0.4700E+02
    -13.144  0.0000E+00  0.0000E+00  0.4700E+02  0.4700E+02
    -12.973  0.0000E+00  0.0000E+00  0.4700E+02  0.4700E+02
    -12.803  0.0000E+00  0.0000E+00  0.4700E+02  0.4700E+02
    -12.632  0.0000E+00  0.0000E+00  0.4700E+02  0.4700E+02
    -12.462  0.0000E+00  0.0000E+00  0.4700E+02  0.4700E+02
    -12.291  0.0000E+00  0.0000E+00  0.4700E+02  0.4700E+02
    -12.121  0.0000E+00  0.0000E+00  0.4700E+02  0.4700E+02
    -11.950  0.0000E+00  0.0000E+00  0.4700E+02  0.4700E+02
    -11.780  0.0000E+00  0.0000E+00  0.4700E+02  0.4700E+02
    -11.609  0.0000E+00  0.0000E+00  0.4700E+02  0.4700E+02
    -11.439  0.0000E+00  0.0000E+00  0.4700E+02  0.4700E+02
    -11.268  0.0000E+00  0.0000E+00  0.4700E+02  0.4700E+02
    -11.098  0.0000E+00  0.0000E+00  0.4700E+02  0.4700E+02
    -10.927  0.0000E+00  0.0000E+00  0.4700E+02  0.4700E+02
    -10.757  0.0000E+00  0.0000E+00  0.4700E+02  0.4700E+02
    -10.586  0.0000E+00  0.0000E+00  0.4700E+02  0.4700E+02
    -10.416  0.0000E+00  0.0000E+00  0.4700E+02  0.4700E+02
    -10.245  0.0000E+00  0.0000E+00  0.4700E+02  0.4700E+02
    -10.075  0.0000E+00  0.0000E+00  0.4700E+02  0.4700E+02
     -9.904  0.0000E+00  0.0000E+00  0.4700E+02  0.4700E+02
     -9.734  0.0000E+00  0.0000E+00  0.4700E+02  0.4700E+02
     -9.563  0.0000E+00  0.0000E+00  0.4700E+02  0.4700E+02
     -9.392  0.0000E+00  0.0000E+00  0.4700E+02  0.4700E+02
     -9.222  0.0000E+00  0.0000E+00  0.4700E+02  0.4700E+02
     -9.051  0.0000E+00  0.0000E+00  0.4700E+02  0.4700E+02
     -8.881  0.0000E+00  0.0000E+00  0.4700E+02  0.4700E+02
     -8.710  0.0000E+00  0.0000E+00  0.4700E+02  0.4700E+02
     -8.540  0.0000E+00  0.0000E+00  0.4700E+02  0.4700E+02
     -8.369  0.0000E+00  0.0000E+00  0.4700E+02  0.4700E+02
     -8.199  0.0000E+00  0.0000E+00  0.4700E+02  0.4700E+02
     -8.028  0.0000E+00  0.0000E+00  0.4700E+02  0.4700E+02
     -7.858  0.0000E+00  0.0000E+00  0.4700E+02  0.4700E+02
     -7.687  0.1221E+02  0.2087E+02  0.4726E+02  0.4746E+02
     -7.517  0.2199E+01  0.3665E+00  0.4800E+02  0.4800E+02
     -7.346  0.0000E+00  0.0000E+00  0.4800E+02  0.4800E+02
     -7.176  0.0000E+00  0.0000E+00  0.4800E+02  0.4800E+02
     -7.005  0.1379E+01  0.0000E+00  0.4805E+02  0.4800E+02
     -6.835  0.1915E+01  0.2263E+01  0.4836E+02  0.4818E+02
     -6.664  0.1913E+01  0.1650E+01  0.4865E+02  0.4846E+02
     -6.494  0.1145E+01  0.1568E+01  0.4890E+02  0.4876E+02
     -6.323  0.1988E+01  0.1325E+01  0.4920E+02  0.4896E+02
     -6.153  0.1634E+01  0.1758E+01  0.4951E+02  0.4927E+02
     -5.982  0.2568E+01  0.1423E+01  0.4998E+02  0.4954E+02
     -5.811  0.4999E+01  0.2737E+01  0.5042E+02  0.4999E+02
     -5.641  0.3164E+01  0.3960E+01  0.5112E+02  0.5049E+02
     -5.470  0.2808E+01  0.3516E+01  0.5156E+02  0.5112E+02
     -5.300  0.4162E+01  0.2502E+01  0.5210E+02  0.5159E+02
     -5.129  0.4511E+01  0.3829E+01  0.5279E+02  0.5206E+02
     -4.959  0.4909E+01  0.5215E+01  0.5385E+02  0.5270E+02
     -4.788  0.5820E+01  0.4641E+01  0.5452E+02  0.5374E+02
     -4.618  0.6116E+01  0.3233E+01  0.5541E+02  0.5420E+02
     -4.447  0.8790E+01  0.5253E+01  0.5634E+02  0.5501E+02
     -4.277  0.9613E+01  0.2082E+01  0.5781E+02  0.5560E+02
     -4.106  0.1559E+02  0.1056E+02  0.5941E+02  0.5644E+02
     -3.936  0.1959E+02  0.9212E+01  0.6194E+02  0.5802E+02
     -3.765  0.3783E+02  0.6732E+01  0.6577E+02  0.5924E+02
     -3.595  0.4962E+02  0.5454E+01  0.7117E+02  0.6041E+02
     -3.424  0.5838E+02  0.7427E+01  0.7759E+02  0.6147E+02
     -3.254  0.7519E+02  0.1756E+02  0.8385E+02  0.6357E+02
     -3.083  0.1106E+03  0.2621E+02  0.9410E+02  0.6627E+02
     -2.913  0.7908E+02  0.2141E+02  0.1022E+03  0.6944E+02
     -2.742  0.6533E+02  0.3486E+02  0.1086E+03  0.7317E+02
     -2.572  0.1030E+03  0.2289E+02  0.1176E+03  0.7652E+02
     -2.401  0.1349E+03  0.2837E+02  0.1304E+03  0.8017E+02
     -2.230  0.1490E+03  0.4020E+02  0.1430E+03  0.8485E+02
     -2.060  0.1473E+03  0.5328E+02  0.1544E+03  0.8980E+02
     -1.889  0.1681E+03  0.5709E+02  0.1663E+03  0.9521E+02
     -1.719  0.1179E+03  0.6558E+02  0.1777E+03  0.1011E+03
     -1.548  0.1328E+03  0.5460E+02  0.1894E+03  0.1072E+03
     -1.378  0.1115E+03  0.7265E+02  0.2010E+03  0.1139E+03
     -1.207  0.1040E+03  0.9079E+02  0.2114E+03  0.1222E+03
     -1.037  0.9031E+02  0.7255E+02  0.2190E+03  0.1305E+03
     -0.866  0.1217E+03  0.7564E+02  0.2281E+03  0.1388E+03
     -0.696  0.1026E+03  0.9701E+02  0.2369E+03  0.1479E+03
     -0.525  0.1270E+03  0.1066E+03  0.2480E+03  0.1587E+03
     -0.355  0.2133E+03  0.1108E+03  0.2621E+03  0.1694E+03
     -0.184  0.1693E+03  0.1265E+03  0.2778E+03  0.1807E+03
     -0.014  0.1478E+03  0.9915E+02  0.2914E+03  0.1913E+03
      0.157  0.1114E+03  0.8867E+02  0.3021E+03  0.1997E+03
      0.327  0.7933E+02  0.5730E+02  0.3106E+03  0.2061E+03
      0.498  0.7294E+02  0.4096E+02  0.3190E+03  0.2113E+03
      0.668  0.7990E+02  0.3403E+02  0.3263E+03  0.2154E+03
      0.839  0.7126E+02  0.5723E+02  0.3337E+03  0.2203E+03
      1.009  0.6096E+02  0.6111E+02  0.3391E+03  0.2266E+03
      1.180  0.5666E+02  0.9105E+02  0.3440E+03  0.2331E+03
      1.351  0.4298E+02  0.9122E+02  0.3499E+03  0.2419E+03
      1.521  0.6736E+02  0.1259E+03  0.3565E+03  0.2515E+03
      1.692  0.6663E+02  0.1088E+03  0.3626E+03  0.2624E+03
      1.862  0.4344E+02  0.1887E+03  0.3687E+03  0.2746E+03
      2.033  0.1759E+02  0.1209E+03  0.3720E+03  0.2863E+03
      2.203  0.0000E+00  0.1584E+03  0.3720E+03  0.3001E+03
      2.374  0.0000E+00  0.1453E+03  0.3720E+03  0.3150E+03
      2.544  0.0000E+00  0.1692E+03  0.3720E+03  0.3317E+03
      2.715  0.0000E+00  0.1486E+03  0.3720E+03  0.3468E+03
      2.885  0.0000E+00  0.1220E+03  0.3720E+03  0.3571E+03
      3.056  0.0000E+00  0.7816E+02  0.3720E+03  0.3644E+03
      3.226  0.0000E+00  0.5403E+02  0.3720E+03  0.3701E+03
      3.397  0.0000E+00  0.8063E+01  0.3720E+03  0.3720E+03
      3.567  0.0000E+00  0.0000E+00  0.3720E+03  0.3720E+03
      3.738  0.0000E+00  0.0000E+00  0.3720E+03  0.3720E+03
      3.908  0.0000E+00  0.0000E+00  0.3720E+03  0.3720E+03
      4.079  0.0000E+00  0.0000E+00  0.3720E+03  0.3720E+03
      4.249  0.0000E+00  0.0000E+00  0.3720E+03  0.3720E+03
      4.420  0.0000E+00  0.0000E+00  0.3720E+03  0.3720E+03
      4.590  0.0000E+00  0.0000E+00  0.3720E+03  0.3720E+03
      4.761  0.0000E+00  0.0000E+00  0.3720E+03  0.3720E+03
      4.932  0.0000E+00  0.0000E+00  0.3720E+03  0.3720E+03
      5.102  0.0000E+00  0.0000E+00  0.3720E+03  0.3720E+03
      5.273  0.0000E+00  0.0000E+00  0.3720E+03  0.3720E+03
      5.443  0.0000E+00  0.0000E+00  0.3720E+03  0.3720E+03
      5.614  0.0000E+00  0.0000E+00  0.3720E+03  0.3720E+03
