 vasp.6.3.2 27Jun22 (build Mar 15 2023 15:45:48) complex                        
  
 executed on             LinuxIFC date 2025.02.10  23:37:29
 running on    4 total cores
 distrk:  each k-point on    4 cores,    1 groups
 distr:  one band on NCORE=   1 cores,    4 groups


--------------------------------------------------------------------------------------------------------


 INCAR:
   SYSTEM = ni3al
   PREC = Accurate
   EDIFF = 1E-5
   ISTART = 0
   ICHARG = 2
   LREAL = Auto
   NSW = 0
   ISIF = 2
   IBRION = -1
   ISMEAR = -5
   SIGMA = 0.1
   ENCUT = 450
   ALGO = Normal
   LMAXMIX = 4
   AMIN = 0.01
   NELM = 150
   LCHARG = .T.
   LWAVE = .T.
   ISPIN = 2
   NCORE = 4
   LELF = .T.
   LDIPOL = .TRUE.
   IDIPOL = 3
   AMIX = 0.05
   BMIX = 0.0001
   IMIX = 4

 POTCAR:    PAW_PBE Fe 06Sep2000                  
 POTCAR:    PAW_PBE Cr_pv 02Aug2007               
 POTCAR:    PAW_PBE Pb_d 06Sep2000                
 -----------------------------------------------------------------------------
|                                                                             |
|           W    W    AA    RRRRR   N    N  II  N    N   GGGG   !!!           |
|           W    W   A  A   R    R  NN   N  II  NN   N  G    G  !!!           |
|           W    W  A    A  R    R  N N  N  II  N N  N  G       !!!           |
|           W WW W  AAAAAA  RRRRR   N  N N  II  N  N N  G  GGG   !            |
|           WW  WW  A    A  R   R   N   NN  II  N   NN  G    G                |
|           W    W  A    A  R    R  N    N  II  N    N   GGGG   !!!           |
|                                                                             |
|     You use a magnetic or noncollinear calculation, but did not specify     |
|     the initial magnetic moment with the MAGMOM tag. Note that a            |
|     default of 1 will be used for all atoms. This ferromagnetic setup       |
|     may break the symmetry of the crystal, in particular it may rule        |
|     out finding an antiferromagnetic solution. Thence, we recommend         |
|     setting the initial magnetic moment manually or verifying carefully     |
|     that this magnetic setup is desired.                                    |
|                                                                             |
 -----------------------------------------------------------------------------

 POTCAR:    PAW_PBE Fe 06Sep2000                  
   VRHFIN =Fe:  d7 s1                                                                               
   LEXCH  = PE                                                                                      
   EATOM  =   594.3153 eV,   43.6809 Ry                                                             
                                                                                                    
   TITEL  = PAW_PBE Fe 06Sep2000                                                                    
   LULTRA =        F    use ultrasoft PP ?                                                          
   IUNSCR =        1    unscreen: 0-lin 1-nonlin 2-no                                               
   RPACOR =    2.000    partial core radius                                                         
   POMASS =   55.847; ZVAL   =    8.000    mass and valenz                                          
   RCORE  =    2.300    outmost cutoff radius                                                       
   RWIGS  =    2.460; RWIGS  =    1.302    wigner-seitz radius (au A)                               
   ENMAX  =  267.882; ENMIN  =  200.911 eV                                                          
   RCLOC  =    1.701    cutoff for local pot                                                        
   LCOR   =        T    correct aug charges                                                         
   LPAW   =        T    paw PP                                                                      
   EAUG   =  511.368                                                                                
   DEXC   =    0.000                                                                                
   RMAX   =    2.356    core radius for proj-oper                                                   
   RAUG   =    1.300    factor for augmentation sphere                                              
   RDEP   =    2.442    radius for radial grids                                                     
   RDEPT  =    1.890    core radius for aug-charge                                                  
                                                                                                    
   Atomic configuration                                                                             
    9 entries                                                                                       
     n  l   j            E        occ.                                                              
     1  0  0.50     -6993.8440   2.0000                                                             
     2  0  0.50      -814.6047   2.0000                                                             
     2  1  1.50      -693.3689   6.0000                                                             
     3  0  0.50       -89.4732   2.0000                                                             
     3  1  1.50       -55.6373   6.0000                                                             
     3  2  2.50        -3.8151   7.0000                                                             
     4  0  0.50        -4.2551   1.0000                                                             
     4  1  1.50        -3.4015   0.0000                                                             
     4  3  2.50        -1.3606   0.0000                                                             
   Description                                                                                      
     l       E           TYP  RCUT    TYP  RCUT                                                     
     2     -3.8151135     23  2.300                                                                 
     2     -5.1756961     23  2.300                                                                 
     0     -4.2550963     23  2.300                                                                 
     0      7.2035603     23  2.300                                                                 
     1     -2.7211652     23  2.300                                                                 
     1     18.4316424     23  2.300                                                                 
  local pseudopotential read in
  partial core-charges read in
  partial kinetic energy density read in
  atomic valenz-charges read in
  non local Contribution for L=           2  read in
    real space projection operators read in
  non local Contribution for L=           2  read in
    real space projection operators read in
  non local Contribution for L=           0  read in
    real space projection operators read in
  non local Contribution for L=           0  read in
    real space projection operators read in
  non local Contribution for L=           1  read in
    real space projection operators read in
  non local Contribution for L=           1  read in
    real space projection operators read in
    PAW grid and wavefunctions read in
 
   number of l-projection  operators is LMAX  =           6
   number of lm-projection operators is LMMAX =          18
 
 POTCAR:    PAW_PBE Cr_pv 02Aug2007               
   VRHFIN =Cr : p6d5s1                                                                              
   LEXCH  = PE                                                                                      
   EATOM  =  1647.9177 eV,  121.1185 Ry                                                             
                                                                                                    
   TITEL  = PAW_PBE Cr_pv 02Aug2007                                                                 
   LULTRA =        F    use ultrasoft PP ?                                                          
   IUNSCR =        1    unscreen: 0-lin 1-nonlin 2-no                                               
   RPACOR =    2.080    partial core radius                                                         
   POMASS =   51.996; ZVAL   =   12.000    mass and valenz                                          
   RCORE  =    2.300    outmost cutoff radius                                                       
   RWIGS  =    2.500; RWIGS  =    1.323    wigner-seitz radius (au A)                               
   ENMAX  =  265.681; ENMIN  =  199.261 eV                                                          
   ICORE  =        3    local potential                                                             
   LCOR   =        T    correct aug charges                                                         
   LPAW   =        T    paw PP                                                                      
   EAUG   =  519.424                                                                                
   DEXC   =    0.000                                                                                
   RMAX   =    2.356    core radius for proj-oper                                                   
   RAUG   =    1.300    factor for augmentation sphere                                              
   RDEP   =    2.447    radius for radial grids                                                     
   RDEPT  =    1.882    core radius for aug-charge                                                  
                                                                                                    
   Atomic configuration                                                                             
    8 entries                                                                                       
     n  l   j            E        occ.                                                              
     1  0  0.50     -5880.4963   2.0000                                                             
     2  0  0.50      -667.0865   2.0000                                                             
     2  1  1.50      -560.6250   6.0000                                                             
     3  0  0.50       -73.9860   2.0000                                                             
     3  1  1.50       -45.4378   6.0000                                                             
     3  2  2.50        -2.9137   5.0000                                                             
     4  0  0.50        -4.0071   1.0000                                                             
     4  3  2.50        -1.3606   0.0000                                                             
   Description                                                                                      
     l       E           TYP  RCUT    TYP  RCUT                                                     
     1    -45.4377911     23  2.000                                                                 
     1      1.3605826     23  2.000                                                                 
     2     -2.9136672     23  2.300                                                                 
     2     -4.2742498     23  2.300                                                                 
     0     -4.0071320     23  2.300                                                                 
     0      9.4498803     23  2.300                                                                 
     3      2.7211652     23  2.300                                                                 
  local pseudopotential read in
  partial core-charges read in
  partial kinetic energy density read in
  atomic valenz-charges read in
  non local Contribution for L=           1  read in
    real space projection operators read in
  non local Contribution for L=           1  read in
    real space projection operators read in
  non local Contribution for L=           2  read in
    real space projection operators read in
  non local Contribution for L=           2  read in
    real space projection operators read in
  non local Contribution for L=           0  read in
    real space projection operators read in
  non local Contribution for L=           0  read in
    real space projection operators read in
    PAW grid and wavefunctions read in
 
   number of l-projection  operators is LMAX  =           6
   number of lm-projection operators is LMMAX =          18
 
 POTCAR:    PAW_PBE Pb_d 06Sep2000                
   VRHFIN =Pb:                                                                                      
   LEXCH  = PE                                                                                      
   EATOM  =  1661.6185 eV,  122.1255 Ry                                                             
                                                                                                    
   TITEL  = PAW_PBE Pb_d 06Sep2000                                                                  
   LULTRA =        F    use ultrasoft PP ?                                                          
   IUNSCR =        1    unscreen: 0-lin 1-nonlin 2-no                                               
   RPACOR =    2.200    partial core radius                                                         
   POMASS =  207.200; ZVAL   =   14.000    mass and valenz                                          
   RCORE  =    2.500    outmost cutoff radius                                                       
   RWIGS  =    3.260; RWIGS  =    1.725    wigner-seitz radius (au A)                               
   ENMAX  =  237.835; ENMIN  =  178.376 eV                                                          
   ICORE  =        3    local potential                                                             
   LCOR   =        T    correct aug charges                                                         
   LPAW   =        T    paw PP                                                                      
   EAUG   =  391.914                                                                                
   DEXC   =    0.000                                                                                
   RMAX   =    2.565    core radius for proj-oper                                                   
   RAUG   =    1.300    factor for augmentation sphere                                              
   RDEP   =    2.643    radius for radial grids                                                     
   RDEPT  =    2.092    core radius for aug-charge                                                  
                                                                                                    
   Atomic configuration                                                                             
   16 entries                                                                                       
     n  l   j            E        occ.                                                              
     1  0  0.50    -88091.8466   2.0000                                                             
     2  0  0.50    -15753.4197   2.0000                                                             
     2  1  1.50    -13508.1797   6.0000                                                             
     3  0  0.50     -3781.7194   2.0000                                                             
     3  1  1.50     -3138.2529   6.0000                                                             
     3  2  2.50     -2483.2977  10.0000                                                             
     4  0  0.50      -856.2895   2.0000                                                             
     4  1  1.50      -645.4942   6.0000                                                             
     4  2  2.50      -401.8768  10.0000                                                             
     4  3  3.50      -132.9059  14.0000                                                             
     5  0  0.50      -144.0950   2.0000                                                             
     5  1  1.50       -85.7879   6.0000                                                             
     5  2  2.50       -21.1769  10.0000                                                             
     6  0  0.50       -12.0372   2.0000                                                             
     6  1  1.50        -3.4971   2.0000                                                             
     5  3  2.50        -2.7212   0.0000                                                             
   Description                                                                                      
     l       E           TYP  RCUT    TYP  RCUT                                                     
     2    -21.1768523     23  2.500                                                                 
     2      1.3605826     23  2.500                                                                 
     0    -12.0371562     23  2.500                                                                 
     0     13.6058260     23  2.500                                                                 
     1     -3.4971339     23  2.500                                                                 
     1     13.6058260     23  2.500                                                                 
     3     -1.3605826      7  2.500                                                                 
  local pseudopotential read in
  partial core-charges read in
  partial kinetic energy density read in
  atomic valenz-charges read in
  non local Contribution for L=           2  read in
    real space projection operators read in
  non local Contribution for L=           2  read in
    real space projection operators read in
  non local Contribution for L=           0  read in
    real space projection operators read in
  non local Contribution for L=           0  read in
    real space projection operators read in
  non local Contribution for L=           1  read in
    real space projection operators read in
  non local Contribution for L=           1  read in
    real space projection operators read in
    PAW grid and wavefunctions read in
 
   number of l-projection  operators is LMAX  =           6
   number of lm-projection operators is LMMAX =          18
 
 Optimization of the real space projectors (new method)

 maximal supplied QI-value         = 16.25
 optimisation between [QCUT,QGAM] = [ 10.73, 21.61] = [ 32.22,130.83] Ry 
 Optimized for a Real-space Cutoff    1.42 Angstroem

   l    n(q)    QCUT    max X(q) W(low)/X(q) W(high)/X(q)  e(spline) 
   2      8    10.726    80.901    0.24E-03    0.41E-03    0.22E-06
   2      8    10.726    75.754    0.24E-03    0.41E-03    0.23E-06
   0      9    10.726    58.752    0.21E-03    0.17E-03    0.42E-07
   0      9    10.726    30.679    0.19E-03    0.16E-03    0.39E-07
   1      9    10.726    17.977    0.20E-03    0.14E-03    0.16E-06
   1      9    10.726    13.559    0.17E-03    0.11E-03    0.13E-06
 Optimization of the real space projectors (new method)

 maximal supplied QI-value         = 16.25
 optimisation between [QCUT,QGAM] = [ 10.73, 21.61] = [ 32.22,130.83] Ry 
 Optimized for a Real-space Cutoff    1.51 Angstroem

   l    n(q)    QCUT    max X(q) W(low)/X(q) W(high)/X(q)  e(spline) 
   1      9    10.726     3.262    0.86E-04    0.42E-04    0.11E-06
   1      9    10.726     5.741    0.19E-03    0.70E-04    0.20E-06
   2      9    10.726    60.438    0.11E-03    0.51E-04    0.13E-06
   2      9    10.726    55.380    0.12E-03    0.51E-04    0.13E-06
   0     10    10.726    80.273    0.42E-04    0.15E-05    0.77E-07
   0     10    10.726    36.654    0.34E-04    0.84E-06    0.69E-07
 Optimization of the real space projectors (new method)

 maximal supplied QI-value         = 15.12
 optimisation between [QCUT,QGAM] = [ 10.73, 21.62] = [ 32.26,130.87] Ry 
 Optimized for a Real-space Cutoff    1.42 Angstroem

   l    n(q)    QCUT    max X(q) W(low)/X(q) W(high)/X(q)  e(spline) 
   2      8    10.734     3.846    0.11E-03    0.12E-04    0.36E-07
   2      8    10.734     8.593    0.24E-03    0.21E-03    0.13E-06
   0      9    10.734    20.082    0.65E-04    0.10E-03    0.71E-07
   0      9    10.734     8.597    0.91E-04    0.14E-03    0.10E-06
   1      9    10.734    33.223    0.24E-03    0.75E-04    0.13E-06
   1      9    10.734    15.899    0.21E-03    0.70E-04    0.12E-06
  PAW_PBE Fe 06Sep2000                  :
 energy of atom  1       EATOM= -594.3153
 kinetic energy error for atom=    0.0034 (will be added to EATOM!!)
  PAW_PBE Cr_pv 02Aug2007               :
 energy of atom  2       EATOM=-1647.9177
 kinetic energy error for atom=    0.0115 (will be added to EATOM!!)
  PAW_PBE Pb_d 06Sep2000                :
 energy of atom  3       EATOM=-1661.6185
 kinetic energy error for atom=    0.0063 (will be added to EATOM!!)
 
 
 POSCAR: Generated by VASPKIT code
  positions in direct lattice
  velocities in cartesian coordinates
 exchange correlation table for  LEXCH =        8
   RHO(1)=    0.500       N(1)  =     2000
   RHO(2)=  100.500       N(2)  =     4000

 VTST: version 4.2, (08/11/21)

 CHAIN: initializing optimizer
 
 OPT: Using VASP Dynamics algorithm
 CHAIN: Read ICHAIN            0
 
 POSCAR: Generated by VASPKIT code
  positions in direct lattice
  velocities in cartesian coordinates
 


--------------------------------------------------------------------------------------------------------


 ion  position               nearest neighbor table
   1  0.001  1.000  0.243-  13 2.44  48 2.45   5 2.45   2 2.45  38 2.45  44 2.46  35 2.47  11 2.49
                            15 2.77  51 2.83   4 2.84  34 2.84   6 2.85  49 2.86
   2  0.164  0.168  0.303-  15 2.39  18 2.40  22 2.41  57 2.45   1 2.45   6 2.45   8 2.47  49 2.49
                             5 2.81   7 2.84  11 2.85  35 2.85   3 2.86
   3  0.499  0.162  0.301-  49 2.39   4 2.41  18 2.41  57 2.43   8 2.44  55 2.45  50 2.46  59 2.52
                            52 2.77  37 2.78   2 2.86   5 2.86   9 2.91
   4  0.668  0.001  0.243-   3 2.41  38 2.44   5 2.45  37 2.45  48 2.45  46 2.46  52 2.46  13 2.47
                            53 2.78  50 2.82  60 2.84   1 2.84  49 2.84  55 2.86
   5  0.835  0.167  0.302-  15 2.42  22 2.45   4 2.45  50 2.45   1 2.45   6 2.45  55 2.54  59 2.56
                             2 2.81  38 2.82  10 2.83  13 2.84   3 2.86
   6  0.000  0.335  0.242-  10 2.44   5 2.45   2 2.45  35 2.46  38 2.46  39 2.46  42 2.47   7 2.48
                            22 2.78  51 2.82  61 2.83  50 2.84   1 2.85   8 2.85
   7  0.168  0.502  0.304-  22 2.40  27 2.43  12 2.45  51 2.46   8 2.48   6 2.48  57 2.56  11 2.81
                             9 2.83   2 2.84  10 2.85  39 2.88  63 2.96
   8  0.335  0.333  0.243-   3 2.44  39 2.45  37 2.45  35 2.46  40 2.46   9 2.46   2 2.47   7 2.48
                            12 2.83  62 2.83  49 2.84  50 2.84   6 2.85  57 2.87
   9  0.500  0.505  0.302-  32 2.40  12 2.41  53 2.44   8 2.46  50 2.49  59 2.52  57 2.55  40 2.80
                            52 2.81   7 2.83  10 2.85   3 2.91  63 2.99
  10  0.834  0.501  0.302-  32 2.41  27 2.41  22 2.43   6 2.44  50 2.45  51 2.47  53 2.48  59 2.59
                            42 2.80  13 2.82   5 2.83   9 2.85   7 2.85
  11  0.169  0.833  0.304-  15 2.42  27 2.46  49 2.46  51 2.47  12 2.47  18 2.48   1 2.49  52 2.81
                             7 2.81  13 2.84   2 2.85  44 2.88  63 2.93
  12  0.333  0.666  0.243-   9 2.41  40 2.45  39 2.45   7 2.45  44 2.46  52 2.46  46 2.47  11 2.47
                            51 2.81   8 2.83  49 2.83  53 2.83  45 2.84  63 3.62
  13  0.836  0.833  0.302-  32 2.41  27 2.41  53 2.43  15 2.44   1 2.44  51 2.46   4 2.47  55 2.54
                            48 2.82  10 2.82  11 2.84   5 2.84  52 2.89
  14  0.001  0.001  0.002-  20 2.46  33 2.46  28 2.46  16 2.48  26 2.83  21 2.83  34 2.84  17 2.85
                            54 2.85
  15  0.001  0.003  0.360-   2 2.39   5 2.42  11 2.42  13 2.44   1 2.77  18 2.83  22 2.84  27 2.88
                            55 2.94
  16  0.168  0.170  0.063-  62 2.44  36 2.45  56 2.45  17 2.46  34 2.46  61 2.46  21 2.46  14 2.48
                            23 2.80  35 2.82  28 2.85  20 2.86  19 2.87
  17  0.335  0.003  0.003-  19 2.45  16 2.46  30 2.46  28 2.46  56 2.81  36 2.82  54 2.83  14 2.85
                            29 2.86
  18  0.332  0.012  0.363-   2 2.40   3 2.41  11 2.48  52 2.50  57 2.62  55 2.78  49 2.81  15 2.83
                            63 3.00
  19  0.505  0.169  0.061-  58 2.43  41 2.45  17 2.45  60 2.46  62 2.47  54 2.47  56 2.48  36 2.48
                            20 2.80  24 2.81  30 2.83  37 2.87  16 2.87
  20  0.833  0.167  0.062-  58 2.43  14 2.46  60 2.46  41 2.46  21 2.46  61 2.46  34 2.46  54 2.50
                            19 2.80  33 2.81  25 2.85  38 2.85  16 2.86
  21  0.000  0.335  0.002-  23 2.46  25 2.46  20 2.46  16 2.46  58 2.81  26 2.83  14 2.83  56 2.83
                            61 2.84
  22  0.002  0.336  0.360-   7 2.40   2 2.41  10 2.43   5 2.45   6 2.78  27 2.78  15 2.84  57 2.88
                            59 2.94
  23  0.168  0.499  0.063-  61 2.45  21 2.46  56 2.46  45 2.46  43 2.46  62 2.47  29 2.47  26 2.48
                            16 2.80  39 2.82  24 2.85  25 2.85  28 2.85
  24  0.501  0.499  0.062-  58 2.43  41 2.45  62 2.45  29 2.46  45 2.46  31 2.47  56 2.47  47 2.47
                            19 2.81  25 2.84  23 2.85  40 2.86  30 2.86
  25  0.834  0.502  0.062-  58 2.42  61 2.45  31 2.45  43 2.46  47 2.46  26 2.46  21 2.46  41 2.46
                            33 2.83  24 2.84  42 2.84  23 2.85  20 2.85
  26  0.001  0.668  0.002-  25 2.46  28 2.46  23 2.48  33 2.48  21 2.83  14 2.83  29 2.84  43 2.85
                            31 2.85
  27  0.995  0.664  0.361-  10 2.41  13 2.41   7 2.43  11 2.46  32 2.78  22 2.78  51 2.81  15 2.88
                            63 3.01
  28  0.168  0.835  0.062-  34 2.45  36 2.46  43 2.46  45 2.46  17 2.46  29 2.46  26 2.46  14 2.46
                            44 2.83  16 2.85  30 2.85  23 2.85  33 2.86
  29  0.334  0.667  0.002-  24 2.46  28 2.46  23 2.47  30 2.47  56 2.83  45 2.83  31 2.84  26 2.84
                            17 2.86
  30  0.502  0.836  0.062-  60 2.44  54 2.45  36 2.45  17 2.46  47 2.46  31 2.47  45 2.47  29 2.47
                            33 2.83  19 2.83  46 2.85  28 2.85  24 2.86
  31  0.668  0.667  0.002-  25 2.45  24 2.47  30 2.47  33 2.47  54 2.80  58 2.81  29 2.84  26 2.85
                            47 2.85
  32  0.669  0.666  0.359-   9 2.40  10 2.41  13 2.41  52 2.45  53 2.73  27 2.78  55 2.83  59 2.85
                            63 2.99
  33  0.833  0.836  0.062-  60 2.44  34 2.46  47 2.46  14 2.46  54 2.46  31 2.47  43 2.47  26 2.48
                            20 2.81  30 2.83  25 2.83  48 2.85  28 2.86
  34  0.001  0.001  0.122-  28 2.45  33 2.46  35 2.46  38 2.46  44 2.46  16 2.46  20 2.46  48 2.47
                            43 2.83  14 2.84  61 2.84   1 2.84  36 2.85  60 2.85
  35  0.167  0.168  0.182-  34 2.46   8 2.46   6 2.46  62 2.46  36 2.46   1 2.47  61 2.47  49 2.49
                            39 2.81  16 2.82  44 2.83  38 2.84   2 2.85  37 2.86
  36  0.335  0.002  0.122-  16 2.45  30 2.45  28 2.46  37 2.46  44 2.46  46 2.46  35 2.46  19 2.48
                            62 2.81  17 2.82  60 2.84  34 2.85  45 2.85  49 2.87
  37  0.502  0.167  0.183-  62 2.44  50 2.44   4 2.45   8 2.45  60 2.46  41 2.46  36 2.46  49 2.47
                             3 2.78  46 2.82  40 2.84  38 2.84  35 2.86  19 2.87
  38  0.834  0.166  0.183-  50 2.44   4 2.44   1 2.45   6 2.46  61 2.46  34 2.46  60 2.46  41 2.47
                             5 2.82  48 2.82  37 2.84  35 2.84  20 2.85  42 2.86
  39  0.170  0.499  0.182-  62 2.45  12 2.45   8 2.45  45 2.45   6 2.46  51 2.46  61 2.46  43 2.47
                            35 2.81  23 2.82  40 2.84  44 2.86   7 2.88  42 2.89
  40  0.502  0.501  0.183-  50 2.45  12 2.45   8 2.46  47 2.46  41 2.46  62 2.47  53 2.47  45 2.47
                             9 2.80  42 2.81  37 2.84  39 2.84  46 2.84  24 2.86
  41  0.667  0.334  0.122-  19 2.45  24 2.45  37 2.46  20 2.46  42 2.46  40 2.46  25 2.46  38 2.47
                            58 2.81  61 2.82  62 2.82  50 2.83  60 2.84  47 2.84
  42  0.831  0.503  0.183-  47 2.44  50 2.45  41 2.46   6 2.47  61 2.47  43 2.47  51 2.47  53 2.48
                            10 2.80  40 2.81  48 2.82  25 2.84  38 2.86  39 2.89
  43  0.001  0.668  0.123-  25 2.46  48 2.46  28 2.46  44 2.46  23 2.46  42 2.47  39 2.47  33 2.47
                            51 2.82  61 2.83  34 2.83  45 2.84  26 2.85  47 2.85
  44  0.169  0.835  0.182-  51 2.45  49 2.46   1 2.46  45 2.46  34 2.46  36 2.46  12 2.46  43 2.46
                            46 2.82  35 2.83  28 2.83  48 2.85  39 2.86  11 2.88
  45  0.334  0.667  0.122-  39 2.45  23 2.46  28 2.46  44 2.46  24 2.46  46 2.46  30 2.47  40 2.47
                            29 2.83  47 2.84  12 2.84  43 2.84  62 2.84  36 2.85
  46  0.500  0.835  0.183-  53 2.43  49 2.44  60 2.45   4 2.46  36 2.46  47 2.46  45 2.46  12 2.47
                            37 2.82  44 2.82  52 2.82  40 2.84  30 2.85  48 2.86
  47  0.667  0.668  0.123-  42 2.44  25 2.46  30 2.46  40 2.46  33 2.46  48 2.46  46 2.46  24 2.47
                            60 2.82  45 2.84  41 2.84  53 2.85  31 2.85  43 2.85
  48  0.835  0.834  0.183-   1 2.45  53 2.45   4 2.45  43 2.46  51 2.46  47 2.46  60 2.46  34 2.47
                            42 2.82  13 2.82  38 2.82  33 2.85  44 2.85  46 2.86
  49  0.336  0.999  0.244-   3 2.39  52 2.40  46 2.44  44 2.46  11 2.46  37 2.47   2 2.49  35 2.49
                            18 2.81  12 2.83   4 2.84   8 2.84   1 2.86  36 2.87
  50  0.668  0.333  0.242-  37 2.44  38 2.44  40 2.45  42 2.45   5 2.45  10 2.45   3 2.46   9 2.49
                             4 2.82  41 2.83   6 2.84   8 2.84  53 2.90  59 2.94
  51  0.004  0.667  0.242-  44 2.45  39 2.46  48 2.46  13 2.46   7 2.46  10 2.47  11 2.47  42 2.47
                            12 2.81  27 2.81  43 2.82   6 2.82   1 2.83  53 2.90
  52  0.498  0.836  0.302-  49 2.40  55 2.42  53 2.43  32 2.45   4 2.46  12 2.46  18 2.50   3 2.77
                            11 2.81   9 2.81  46 2.82  13 2.89  63 2.97
  53  0.665  0.674  0.243-  13 2.43  52 2.43  46 2.43   9 2.44  48 2.45  40 2.47  10 2.48  42 2.48
                            32 2.73   4 2.78  12 2.83  47 2.85  51 2.90  50 2.90
  54  0.666  0.997  0.000-  30 2.45  33 2.46  19 2.47  20 2.50  31 2.80  17 2.83  14 2.85  60 2.89
                            58 2.89
  55  0.657  0.999  0.364-  52 2.42   3 2.45  13 2.54   5 2.54  18 2.78  59 2.83  32 2.83   4 2.86
                            15 2.94
  56  0.332  0.334  0.001-  16 2.45  23 2.46  24 2.47  19 2.48  17 2.81  29 2.83  21 2.83  62 2.86
                            58 2.89
  57  0.339  0.320  0.364-   3 2.43   2 2.45   9 2.55   7 2.56  18 2.62  59 2.72   8 2.87  22 2.88
                            63 3.07
  58  0.670  0.337  0.003-  25 2.42  19 2.43  24 2.43  20 2.43  31 2.81  41 2.81  21 2.81  56 2.89
                            54 2.89
  59  0.658  0.331  0.367-   3 2.52   9 2.52   5 2.56  10 2.59  57 2.72  55 2.83  32 2.85  50 2.94
                            22 2.94
  60  0.667  1.000  0.122-  33 2.44  30 2.44  46 2.45  37 2.46  20 2.46  38 2.46  19 2.46  48 2.46
                            47 2.82   4 2.84  41 2.84  36 2.84  34 2.85  54 2.89
  61  0.998  0.335  0.122-  25 2.45  23 2.45  38 2.46  39 2.46  20 2.46  16 2.46  42 2.47  35 2.47
                            41 2.82  43 2.83   6 2.83  21 2.84  34 2.84  62 2.89
  62  0.337  0.332  0.123-  37 2.44  16 2.44  39 2.45  24 2.45  35 2.46  40 2.47  23 2.47  19 2.47
                            36 2.81  41 2.82   8 2.83  45 2.84  56 2.86  61 2.89
  63  0.334  0.671  0.396-  11 2.93   7 2.96  52 2.97   9 2.99  32 2.99  18 3.00  27 3.01  57 3.07
                            12 3.62
 
  Warning from LATTYP: Monoclinic adjustment (A1->A3, A2->A1, A3->A2)!
  LATTYP: Found a simple monoclinic cell.
 ALAT       =     8.4969997406
 B/A-ratio  =     2.7768624260
 C/A-ratio  =     1.0042014647
 COS(beta)  =    -0.0000611195
  
  Lattice vectors:
  
 A1 = (  -0.0005193328,   8.4969997247,   0.0000000000)
 A2 = (   0.0000000000,   0.0000000000,  23.5949993134)
 A3 = (   8.5326995850,   0.0000000000,   0.0000000000)


Analysis of symmetry for initial positions (statically):
=====================================================================
 Subroutine PRICEL returns:
 Original cell was already a primitive cell.
 

 Routine SETGRP: Setting up the symmetry group for a 
 simple monoclinic supercell.


 Subroutine GETGRP returns: Found  1 space group operations
 (whereof  1 operations were pure point group operations)
 out of a pool of  4 trial point group operations.


The static configuration has the point symmetry C_1 .


Analysis of symmetry for dynamics (positions and initial velocities):
=====================================================================
 Subroutine PRICEL returns:
 Original cell was already a primitive cell.
 

 Routine SETGRP: Setting up the symmetry group for a 
 simple monoclinic supercell.


 Subroutine GETGRP returns: Found  1 space group operations
 (whereof  1 operations were pure point group operations)
 out of a pool of  4 trial point group operations.


The dynamic configuration has the point symmetry C_1 .


Analysis of constrained symmetry for selective dynamics:
=====================================================================
 Subroutine PRICEL returns:
 Original cell was already a primitive cell.
 

 Routine SETGRP: Setting up the symmetry group for a 
 simple monoclinic supercell.


 Subroutine GETGRP returns: Found  1 space group operations
 (whereof  1 operations were pure point group operations)
 out of a pool of  4 trial point group operations.


The constrained configuration has the point symmetry C_1 .


Analysis of structural, dynamic, and magnetic symmetry:
=====================================================================
 Subroutine PRICEL returns:
 Original cell was already a primitive cell.
 

 Routine SETGRP: Setting up the symmetry group for a 
 simple monoclinic supercell.


 Subroutine GETGRP returns: Found  1 space group operations
 (whereof  1 operations were pure point group operations)
 out of a pool of  4 trial point group operations.


The overall configuration has the point symmetry C_1 .


 Subroutine INISYM returns: Found  1 space group operations
 (whereof  1 operations are pure point group operations),
 and found     1 'primitive' translations


----------------------------------------------------------------------------------------

                                     Primitive cell                                     

  volume of cell :    1710.6928

  direct lattice vectors                    reciprocal lattice vectors
     8.532699585  0.000000000  0.000000000     0.117196204  0.000007163  0.000000000
    -0.000519333  8.496999725  0.000000000     0.000000000  0.117688600  0.000000000
     0.000000000  0.000000000 23.594999313     0.000000000  0.000000000  0.042381862

  length of vectors
     8.532699585  8.496999741 23.594999313     0.117196204  0.117688600  0.042381862

  position of ions in fractional coordinates (direct lattice)
     0.000860000  0.999930000  0.242710000
     0.164374472  0.167997068  0.303113981
     0.499393231  0.162357663  0.300560169
     0.668220000  0.001070000  0.242720000
     0.834751553  0.167344508  0.302240427
     0.000440000  0.334970000  0.242400000
     0.168424480  0.501797975  0.303976185
     0.334690000  0.333050000  0.242670000
     0.499853892  0.505305100  0.301774777
     0.833998829  0.500653379  0.301596371
     0.168762931  0.832906265  0.304416639
     0.333420000  0.665550000  0.242610000
     0.836116030  0.832689468  0.302352505
     0.000640000  0.001190000  0.001990000
     0.001067069  0.002678594  0.360226278
     0.168430000  0.169620000  0.062690000
     0.334600000  0.002970000  0.002540000
     0.332026738  0.011555319  0.362601476
     0.504630000  0.168500000  0.061200000
     0.832720000  0.166700000  0.061930000
     0.000040000  0.334670000  0.002130000
     0.002223730  0.336438401  0.360315321
     0.167570000  0.498950000  0.062680000
     0.500990000  0.498960000  0.062060000
     0.833930000  0.502340000  0.062350000
     0.001210000  0.667850000  0.001880000
     0.994937372  0.663978196  0.361293845
     0.167920000  0.834620000  0.062280000
     0.334370000  0.666640000  0.002250000
     0.501520000  0.835630000  0.062170000
     0.667530000  0.667050000  0.001750000
     0.669082963  0.666139445  0.359027601
     0.832930000  0.835840000  0.062350000
     0.001210000  0.000980000  0.122250000
     0.167000000  0.168110000  0.182390000
     0.334700000  0.002270000  0.121920000
     0.501740000  0.167160000  0.182630000
     0.834210000  0.166390000  0.182830000
     0.169640000  0.498680000  0.182090000
     0.502190000  0.500810000  0.183170000
     0.667410000  0.333950000  0.122330000
     0.831340000  0.502530000  0.182830000
     0.001320000  0.667950000  0.122530000
     0.168980000  0.835090000  0.182430000
     0.334460000  0.667030000  0.122230000
     0.499710000  0.835380000  0.182780000
     0.666980000  0.668400000  0.122590000
     0.834880000  0.834030000  0.182940000
     0.335580000  0.998630000  0.243530000
     0.668010000  0.332620000  0.242290000
     0.004480000  0.667390000  0.242170000
     0.497867580  0.836271374  0.302459809
     0.665210000  0.673510000  0.243270000
     0.666200000  0.996800000  0.000000000
     0.657155497  0.998894062  0.363992978
     0.332130000  0.333860000  0.001350000
     0.339419127  0.320145148  0.364201881
     0.670400000  0.336730000  0.003210000
     0.658167466  0.331386503  0.366780864
     0.667280000  0.999980000  0.122460000
     0.998060000  0.334950000  0.122350000
     0.336750000  0.332380000  0.122610000
     0.334331527  0.670616309  0.396038254

  ion indices of the primitive-cell ions
   primitive index   ion index
                 1           1
                 2           2
                 3           3
                 4           4
                 5           5
                 6           6
                 7           7
                 8           8
                 9           9
                10          10
                11          11
                12          12
                13          13
                14          14
                15          15
                16          16
                17          17
                18          18
                19          19
                20          20
                21          21
                22          22
                23          23
                24          24
                25          25
                26          26
                27          27
                28          28
                29          29
                30          30
                31          31
                32          32
                33          33
                34          34
                35          35
                36          36
                37          37
                38          38
                39          39
                40          40
                41          41
                42          42
                43          43
                44          44
                45          45
                46          46
                47          47
                48          48
                49          49
                50          50
                51          51
                52          52
                53          53
                54          54
                55          55
                56          56
                57          57
                58          58
                59          59
                60          60
                61          61
                62          62
                63          63

----------------------------------------------------------------------------------------

 
 
 KPOINTS: K-Spacing Value to Generate K-Mesh: 0.03

Automatic generation of k-mesh.
 Grid dimensions read from file:
 generate k-points for:    4    4    1

 Generating k-lattice:

  Cartesian coordinates                     Fractional coordinates (reciprocal lattice)
     0.029299051  0.000001791  0.000000000     0.250000000  0.000000000  0.000000000
     0.000000000  0.029422150  0.000000000     0.000000000  0.250000000  0.000000000
     0.000000000  0.000000000  0.042381862     0.000000000  0.000000000  1.000000000

  Length of vectors
     0.029299051  0.029422150  0.042381862

  Shift w.r.t. Gamma in fractional coordinates (k-lattice)
     0.000000000  0.000000000  0.000000000

 TETIRR: Found     48 inequivalent tetrahedra from       96
 
 Subroutine IBZKPT returns following result:
 ===========================================
 
 Found     10 irreducible k-points:
 
 Following reciprocal coordinates:
            Coordinates               Weight
  0.000000  0.000000  0.000000      1.000000
  0.250000  0.000000  0.000000      2.000000
  0.500000  0.000000  0.000000      1.000000
  0.000000  0.250000  0.000000      2.000000
  0.250000  0.250000  0.000000      2.000000
  0.500000  0.250000  0.000000      2.000000
 -0.250000  0.250000  0.000000      2.000000
  0.000000  0.500000  0.000000      1.000000
  0.250000  0.500000  0.000000      2.000000
  0.500000  0.500000  0.000000      1.000000
 
 Following cartesian coordinates:
            Coordinates               Weight
  0.000000  0.000000  0.000000      1.000000
  0.029299  0.000002  0.000000      2.000000
  0.058598  0.000004  0.000000      1.000000
  0.000000  0.029422  0.000000      2.000000
  0.029299  0.029424  0.000000      2.000000
  0.058598  0.029426  0.000000      2.000000
 -0.029299  0.029420  0.000000      2.000000
  0.000000  0.058844  0.000000      1.000000
  0.029299  0.058846  0.000000      2.000000
  0.058598  0.058848  0.000000      1.000000
 


--------------------------------------------------------------------------------------------------------




 Dimension of arrays:
   k-points           NKPTS =     10   k-points in BZ     NKDIM =     10   number of bands    NBANDS=    372
   number of dos      NEDOS =    301   number of ions     NIONS =     63
   non local maximal  LDIM  =      6   non local SUM 2l+1 LMDIM =     18
   total plane-waves  NPLWV = 604800
   max r-space proj   IRMAX =   5137   max aug-charges    IRDMAX=  18968
   dimension x,y,z NGX =    60 NGY =   60 NGZ =  168
   dimension x,y,z NGXF=   120 NGYF=  120 NGZF=  336
   support grid    NGXF=   120 NGYF=  120 NGZF=  336
   ions per type =              48  14   1
   NGX,Y,Z   is equivalent  to a cutoff of  11.69, 11.74, 11.84 a.u.
   NGXF,Y,Z  is equivalent  to a cutoff of  23.38, 23.48, 23.67 a.u.

 SYSTEM =  ni3al                                   
 POSCAR =  Generated by VASPKIT code               

 Startparameter for this run:
   NWRITE =      2    write-flag & timer
   PREC   = accura    normal or accurate (medium, high low for compatibility)
   ISTART =      0    job   : 0-new  1-cont  2-samecut
   ICHARG =      2    charge: 1-file 2-atom 10-const
   ISPIN  =      2    spin polarized calculation?
   LNONCOLLINEAR =      F non collinear calculations
   LSORBIT =      F    spin-orbit coupling
   INIWAV =      1    electr: 0-lowe 1-rand  2-diag
   LASPH  =      F    aspherical Exc in radial PAW
 Electronic Relaxation 1
   ENCUT  =  450.0 eV  33.07 Ry    5.75 a.u.  14.76 14.70 40.81*2*pi/ulx,y,z
   ENINI  =  450.0     initial cutoff
   ENAUG  =  519.4 eV  augmentation charge cutoff
   NELM   =    150;   NELMIN=  2; NELMDL= -5     # of ELM steps 
   EDIFF  = 0.1E-04   stopping-criterion for ELM
   LREAL  =      T    real-space projection
   NLSPLINE    = F    spline interpolate recip. space projectors
   LCOMPAT=      F    compatible to vasp.4.4
   GGA_COMPAT  = T    GGA compatible to vasp.4.4-vasp.4.6
   LMAXPAW     = -100 max onsite density
   LMAXMIX     =    4 max onsite mixed and CHGCAR
   VOSKOWN=      0    Vosko Wilk Nusair interpolation
   ROPT   =   -0.00025  -0.00025  -0.00025
 Ionic relaxation
   EDIFFG = 0.1E-03   stopping-criterion for IOM
   NSW    =      0    number of steps for IOM
   NBLOCK =      1;   KBLOCK =      1    inner block; outer block 
   IBRION =     -1    ionic relax: 0-MD 1-quasi-New 2-CG
   NFREE  =      0    steps in history (QN), initial steepest desc. (CG)
   ISIF   =      2    stress and relaxation
   IWAVPR =     10    prediction:  0-non 1-charg 2-wave 3-comb
   ISYM   =      2    0-nonsym 1-usesym 2-fastsym
   LCORR  =      T    Harris-Foulkes like correction to forces

   POTIM  = 0.5000    time-step for ionic-motion
   TEIN   =    0.0    initial temperature
   TEBEG  =    0.0;   TEEND  =   0.0 temperature during run
   SMASS  =  -3.00    Nose mass-parameter (am)
   estimated Nose-frequenzy (Omega)   =  0.10E-29 period in steps = 0.13E+47 mass=  -0.166E-26a.u.
   SCALEE = 1.0000    scale energy and forces
   NPACO  =    256;   APACO  = 10.0  distance and # of slots for P.C.
   PSTRESS=    0.0 pullay stress

  Mass of Ions in am
   POMASS =  55.85 52.00207.20
  Ionic Valenz
   ZVAL   =   8.00 12.00 14.00
  Atomic Wigner-Seitz radii
   RWIGS  =  -1.00 -1.00 -1.00
  virtual crystal weights 
   VCA    =   1.00  1.00  1.00
   NELECT =     566.0000    total number of electrons
   NUPDOWN=      -1.0000    fix difference up-down

 DOS related values:
   EMIN   =  10.00;   EMAX   =-10.00  energy-range for DOS
   EFERMI =   0.00
   ISMEAR =    -5;   SIGMA  =   0.10  broadening in eV -4-tet -1-fermi 0-gaus

 Electronic relaxation 2 (details)
   IALGO  =     38    algorithm
   LDIAG  =      T    sub-space diagonalisation (order eigenvalues)
   LSUBROT=      F    optimize rotation matrix (better conditioning)
   TURBO    =      0    0=normal 1=particle mesh
   IRESTART =      0    0=no restart 2=restart with 2 vectors
   NREBOOT  =      0    no. of reboots
   NMIN     =      0    reboot dimension
   EREF     =   0.00    reference energy to select bands
   IMIX   =      4    mixing-type and parameters
     AMIX     =   0.05;   BMIX     =  0.00
     AMIX_MAG =   0.20;   BMIX_MAG =  0.00
     AMIN     =   0.01
     WC   =   100.;   INIMIX=   1;  MIXPRE=   1;  MAXMIX= -45

 Intra band minimization:
   WEIMIN = 0.0000     energy-eigenvalue tresh-hold
   EBREAK =  0.67E-08  absolut break condition
   DEPER  =   0.30     relativ break condition  

   TIME   =   0.40     timestep for ELM

  volume/ion in A,a.u.               =      27.15       183.24
  Fermi-wavevector in a.u.,A,eV,Ry     =   1.132286  2.139711 17.443656  1.282073
  Thomas-Fermi vector in A             =   2.268987
 
 Write flags
   LWAVE        =      T    write WAVECAR
   LDOWNSAMPLE  =      F    k-point downsampling of WAVECAR
   LCHARG       =      T    write CHGCAR
   LVTOT        =      F    write LOCPOT, total local potential
   LVHAR        =      F    write LOCPOT, Hartree potential only
   LELF         =      T    write electronic localiz. function (ELF)
   LORBIT       =      0    0 simple, 1 ext, 2 COOP (PROOUT), +10 PAW based schemes


 Dipole corrections
   LMONO  =      F    monopole corrections only (constant potential shift)
   LDIPOL =      T    correct potential (dipole corrections)
   IDIPOL =      3    1-x, 2-y, 3-z, 4-all directions 
   EPSILON=  1.0000000 bulk dielectric constant

 Exchange correlation treatment:
   GGA     =    --    GGA type
   LEXCH   =     8    internal setting for exchange type
   LIBXC   =     F    Libxc                    
   VOSKOWN =     0    Vosko Wilk Nusair interpolation
   LHFCALC =     F    Hartree Fock is set to
   LHFONE  =     F    Hartree Fock one center treatment
   AEXX    =    0.0000 exact exchange contribution

 Linear response parameters
   LEPSILON=     F    determine dielectric tensor
   LRPA    =     F    only Hartree local field effects (RPA)
   LNABLA  =     F    use nabla operator in PAW spheres
   LVEL    =     F    velocity operator in full k-point grid
   CSHIFT  =0.1000    complex shift for real part using Kramers Kronig
   OMEGAMAX=  -1.0    maximum frequency
   DEG_THRESHOLD= 0.2000000E-02 threshold for treating states as degnerate
   RTIME   =   -0.100 relaxation time in fs
  (WPLASMAI=    0.000 imaginary part of plasma frequency in eV, 0.658/RTIME)
   DFIELD  = 0.0000000 0.0000000 0.0000000 field for delta impulse in time
 
  Optional k-point grid parameters
   LKPOINTS_OPT  =     F    use optional k-point grid
   KPOINTS_OPT_MODE=     1    mode for optional k-point grid
 
 Orbital magnetization related:
   ORBITALMAG=     F  switch on orbital magnetization
   LCHIMAG   =     F  perturbation theory with respect to B field
   DQ        =  0.001000  dq finite difference perturbation B field
   LLRAUG    =     F  two centre corrections for induced B field



--------------------------------------------------------------------------------------------------------


 Static calculation
 charge density and potential will be updated during run
 spin polarized calculation
 Variant of blocked Davidson
 Davidson routine will perform the subspace rotation
 perform sub-space diagonalisation
    after iterative eigenvector-optimisation
 modified Broyden-mixing scheme, WC =      100.0
 initial mixing is a Kerker type mixing with AMIX =  0.0500 and BMIX =      0.0001
 Hartree-type preconditioning will be used
 using additional bands           89
 real space projection scheme for non local part
 use partial core corrections
 calculate Harris-corrections to forces 
   (improved forces if not selfconsistent)
 use gradient corrections 
 use of overlap-Matrix (Vanderbilt PP)
 Fermi weights with tetrahedron method with Bloechl corrections


--------------------------------------------------------------------------------------------------------


  energy-cutoff  :      450.00
  volume of cell :     1710.69
      direct lattice vectors                 reciprocal lattice vectors
     8.532699585  0.000000000  0.000000000     0.117196204  0.000007163  0.000000000
    -0.000519333  8.496999725  0.000000000     0.000000000  0.117688600  0.000000000
     0.000000000  0.000000000 23.594999313     0.000000000  0.000000000  0.042381862

  length of vectors
     8.532699585  8.496999741 23.594999313     0.117196204  0.117688600  0.042381862


 
 k-points in units of 2pi/SCALE and weight: K-Spacing Value to Generate K-Mesh: 0.03
   0.00000000  0.00000000  0.00000000       0.062
   0.02929905  0.00000179  0.00000000       0.125
   0.05859810  0.00000358  0.00000000       0.062
   0.00000000  0.02942215  0.00000000       0.125
   0.02929905  0.02942394  0.00000000       0.125
   0.05859810  0.02942573  0.00000000       0.125
  -0.02929905  0.02942036  0.00000000       0.125
   0.00000000  0.05884430  0.00000000       0.062
   0.02929905  0.05884609  0.00000000       0.125
   0.05859810  0.05884788  0.00000000       0.062
 
 k-points in reciprocal lattice and weights: K-Spacing Value to Generate K-Mesh: 0.03
   0.00000000  0.00000000  0.00000000       0.062
   0.25000000  0.00000000  0.00000000       0.125
   0.50000000  0.00000000  0.00000000       0.062
   0.00000000  0.25000000  0.00000000       0.125
   0.25000000  0.25000000  0.00000000       0.125
   0.50000000  0.25000000  0.00000000       0.125
  -0.25000000  0.25000000  0.00000000       0.125
   0.00000000  0.50000000  0.00000000       0.062
   0.25000000  0.50000000  0.00000000       0.125
   0.50000000  0.50000000  0.00000000       0.062
 
 position of ions in fractional coordinates (direct lattice) 
   0.00086000  0.99993000  0.24271000
   0.16437447  0.16799707  0.30311398
   0.49939323  0.16235766  0.30056017
   0.66822000  0.00107000  0.24272000
   0.83475155  0.16734451  0.30224043
   0.00044000  0.33497000  0.24240000
   0.16842448  0.50179797  0.30397618
   0.33469000  0.33305000  0.24267000
   0.49985389  0.50530510  0.30177478
   0.83399883  0.50065338  0.30159637
   0.16876293  0.83290627  0.30441664
   0.33342000  0.66555000  0.24261000
   0.83611603  0.83268947  0.30235251
   0.00064000  0.00119000  0.00199000
   0.00106707  0.00267859  0.36022628
   0.16843000  0.16962000  0.06269000
   0.33460000  0.00297000  0.00254000
   0.33202674  0.01155532  0.36260148
   0.50463000  0.16850000  0.06120000
   0.83272000  0.16670000  0.06193000
   0.00004000  0.33467000  0.00213000
   0.00222373  0.33643840  0.36031532
   0.16757000  0.49895000  0.06268000
   0.50099000  0.49896000  0.06206000
   0.83393000  0.50234000  0.06235000
   0.00121000  0.66785000  0.00188000
   0.99493737  0.66397820  0.36129385
   0.16792000  0.83462000  0.06228000
   0.33437000  0.66664000  0.00225000
   0.50152000  0.83563000  0.06217000
   0.66753000  0.66705000  0.00175000
   0.66908296  0.66613945  0.35902760
   0.83293000  0.83584000  0.06235000
   0.00121000  0.00098000  0.12225000
   0.16700000  0.16811000  0.18239000
   0.33470000  0.00227000  0.12192000
   0.50174000  0.16716000  0.18263000
   0.83421000  0.16639000  0.18283000
   0.16964000  0.49868000  0.18209000
   0.50219000  0.50081000  0.18317000
   0.66741000  0.33395000  0.12233000
   0.83134000  0.50253000  0.18283000
   0.00132000  0.66795000  0.12253000
   0.16898000  0.83509000  0.18243000
   0.33446000  0.66703000  0.12223000
   0.49971000  0.83538000  0.18278000
   0.66698000  0.66840000  0.12259000
   0.83488000  0.83403000  0.18294000
   0.33558000  0.99863000  0.24353000
   0.66801000  0.33262000  0.24229000
   0.00448000  0.66739000  0.24217000
   0.49786758  0.83627137  0.30245981
   0.66521000  0.67351000  0.24327000
   0.66620000  0.99680000  0.00000000
   0.65715550  0.99889406  0.36399298
   0.33213000  0.33386000  0.00135000
   0.33941913  0.32014515  0.36420188
   0.67040000  0.33673000  0.00321000
   0.65816747  0.33138650  0.36678086
   0.66728000  0.99998000  0.12246000
   0.99806000  0.33495000  0.12235000
   0.33675000  0.33238000  0.12261000
   0.33433153  0.67061631  0.39603825
 
 position of ions in cartesian coordinates  (Angst):
   0.00681883  8.49640493  5.72674228
   1.40247075  1.42747104  7.15197418
   4.26108810  1.37955302  7.09171698
   5.70171996  0.00909179  5.72697823
   7.12259732  1.42192624  7.13136267
   0.00358043  2.84624000  5.71942783
   1.43685489  4.26377725  7.17231787
   2.85563626  2.82992576  5.72579848
   4.26484067  4.29357730  7.12037565
   7.11600146  4.25405162  7.11616616
   1.43957083  7.07720430  7.18271039
   2.84462705  5.65517817  5.72438278
   7.13389446  7.07536218  7.13400715
   0.00546031  0.01011143  0.04695405
   0.00910359  0.02276001  8.49953879
   1.43707450  1.44126109  1.47917051
   2.85503974  0.02523609  0.05993130
   2.83307841  0.09818554  8.55558158
   4.30576868  1.43174445  1.44401396
   7.10526303  1.41644985  1.46123831
   0.00016750  2.84369090  0.05025735
   0.01879969  2.85871700  8.50163976
   1.42956535  4.23957801  1.47893456
   4.27453804  4.23966298  1.46430566
   7.11541328  4.26838284  1.47114821
   0.00997773  5.67472127  0.04435860
   8.48915688  5.64182255  8.52472803
   1.43237747  7.09176591  1.46949656
   2.85273255  5.66443990  0.05308875
   4.27888553  7.10034788  1.46690111
   5.69548653  5.66792367  0.04129125
   5.70873797  5.66018668  8.47125600
   7.10670739  7.10213225  1.47114821
   0.01032406  0.00832706  2.88448867
   1.42487353  1.42843062  4.30349192
   2.85589337  0.01928819  2.87670232
   4.28110988  1.42035847  4.30915472
   7.11797691  1.41381578  4.31387372
   1.44722818  4.23728382  4.29641342
   4.28477632  4.25538243  4.32189602
   5.69463560  2.83757306  2.88637627
   7.09331349  4.26999727  4.31387372
   0.01091628  5.67557097  2.89109527
   1.44142189  7.09575950  4.30443572
   2.85350029  5.66775373  2.88401677
   4.26344147  7.09822363  4.31269397
   5.69079285  5.67939462  2.89251097
   7.12334709  7.08675268  4.31646917
   2.86288471  8.48535884  5.74609018
   5.69975591  2.82627205  5.71683238
   0.03787990  5.67081265  5.71400098
   4.24772019  7.10579763  7.13653898
   5.67568732  5.72281428  5.73995548
   5.68396679  8.46980933  0.00000000
   5.60679168  8.48760257  8.58841407
   2.83379213  2.83680833  0.03185325
   2.89599519  2.72027323  8.59334314
   5.72014693  2.86119472  0.07573995
   5.61577316  2.81579103  8.65419423
   5.69318046  8.49682978  2.88944362
   8.51597220  2.84607006  2.88684817
   2.87321397  2.82423277  2.89298287
   2.85240221  5.69822659  9.34452232
 


--------------------------------------------------------------------------------------------------------


 k-point   1 :   0.0000 0.0000 0.0000  plane waves:   37053
 k-point   2 :   0.2500 0.0000 0.0000  plane waves:   37082
 k-point   3 :   0.5000 0.0000 0.0000  plane waves:   37122
 k-point   4 :   0.0000 0.2500 0.0000  plane waves:   37091
 k-point   5 :   0.2500 0.2500 0.0000  plane waves:   37070
 k-point   6 :   0.5000 0.2500 0.0000  plane waves:   37050
 k-point   7 :  -0.2500 0.2500 0.0000  plane waves:   37068
 k-point   8 :   0.0000 0.5000 0.0000  plane waves:   37118
 k-point   9 :   0.2500 0.5000 0.0000  plane waves:   37056
 k-point  10 :   0.5000 0.5000 0.0000  plane waves:   37124

 maximum and minimum number of plane-waves per node :     37124    37050

 maximum number of plane-waves:     37124
 maximum index in each direction: 
   IXMAX=   15   IYMAX=   14   IZMAX=   40
   IXMIN=  -15   IYMIN=  -15   IZMIN=  -40


 serial   3D FFT for wavefunctions
 parallel 3D FFT for charge:
    minimum data exchange during FFTs selected (reduces bandwidth)


 total amount of memory used by VASP MPI-rank0  1417726. kBytes
=======================================================================

   base      :      30000. kBytes
   nonlr-proj:      48468. kBytes
   fftplans  :      43220. kBytes
   grid      :     155462. kBytes
   one-center:       1959. kBytes
   wavefun   :    1138617. kBytes
 
     INWAV:  cpu time      0.0001: real time      0.0000
 Broyden mixing: mesh for mixing (old mesh)
   NGX = 29   NGY = 29   NGZ = 81
  (NGX  =120   NGY  =120   NGZ  =336)
  gives a total of  68121 points

 initial charge density was supplied:
 charge density of overlapping atoms calculated
 number of electron     566.0000000 magnetization      63.0000000
 keeping initial charge density in first step


--------------------------------------------------------------------------------------------------------


 Maximum index for non-local projection operator         4950
 Maximum index for augmentation-charges         4505 (set IRDMAX)


--------------------------------------------------------------------------------------------------------


 First call to EWALD:  gamma=   0.148
 Maximum number of real-space cells 4x 4x 2
 Maximum number of reciprocal cells 2x 2x 5

    FEWALD:  cpu time      0.0124: real time      0.0062


--------------------------------------- Iteration      1(   1)  ---------------------------------------


    POTLOK:  cpu time      7.2294: real time      1.5276
    SETDIJ:  cpu time      0.9391: real time      0.1342
     EDDAV:  cpu time    194.6799: real time     27.8894
 BZINTS: Fermi energy:   12.254568;  566.000000 electrons
         Band energy: 0.176433E+04;  BLOECHL correction:   -0.005337
       DOS:  cpu time      0.5534: real time      0.0797
    --------------------------------------------
      LOOP:  cpu time    203.4022: real time     29.6310

 eigenvalue-minimisations  : 15792
 total energy-change (2. order) : 0.5616033E+04  (-0.2416915E+05)
 number of electron     566.0000000 magnetization      63.0000000
 augmentation part      566.0000000 magnetization      63.0000000

 DIPCOR: dipole corrections for dipol
 direction  3 min pos   233,
 dipolmoment           0.000000      0.000000      0.000011 electrons x Angstroem
 Tr[quadrupol]     -7088.522139

 energy correction for charged system         0.000000 eV
 dipol+quadrupol energy correction           -0.000000 eV
 added-field ion interaction          0.000063 eV  (added to PSCEN)


 Free energy of the ion-electron system (eV)
  ---------------------------------------------------
  alpha Z        PSCENC =      1814.29861831
  Ewald energy   TEWEN  =    211611.40719319
  -Hartree energ DENC   =   -262797.66768916
  -exchange      EXHF   =         0.00000000
  -V(xc)+E(xc)   XCENC  =       995.12982630
  PAW double counting   =     46365.14764523   -47395.88140329
  entropy T*S    EENTRO =         0.00000000
  eigenvalues    EBANDS =      1764.32716834
  atomic energy  EATOM  =     53259.27193834
  Solvation  Ediel_sol  =         0.00000000
  ---------------------------------------------------
  free energy    TOTEN  =      5616.03329726 eV

  energy without entropy =     5616.03329726  energy(sigma->0) =     5616.03329726


--------------------------------------------------------------------------------------------------------




--------------------------------------- Iteration      1(   2)  ---------------------------------------


     EDDAV:  cpu time    186.2605: real time     26.7219
 BZINTS: Fermi energy:    2.314551;  566.000000 electrons
         Band energy:-0.391541E+04;  BLOECHL correction:   -0.003160
       DOS:  cpu time      0.5177: real time      0.0740
    --------------------------------------------
      LOOP:  cpu time    186.7780: real time     26.7958

 eigenvalue-minimisations  : 14880
 total energy-change (2. order) :-0.5679734E+04  (-0.5479851E+04)
 number of electron     566.0000000 magnetization      63.0000000
 augmentation part      566.0000000 magnetization      63.0000000

 DIPCOR: dipole corrections for dipol
 direction  3 min pos   233,
 dipolmoment           0.000000      0.000000      0.000011 electrons x Angstroem
 Tr[quadrupol]     -7088.522139

 energy correction for charged system         0.000000 eV
 dipol+quadrupol energy correction           -0.000000 eV
 added-field ion interaction          0.000063 eV  (added to PSCEN)


 Free energy of the ion-electron system (eV)
  ---------------------------------------------------
  alpha Z        PSCENC =      1814.29861831
  Ewald energy   TEWEN  =    211611.40719319
  -Hartree energ DENC   =   -262797.66768916
  -exchange      EXHF   =         0.00000000
  -V(xc)+E(xc)   XCENC  =       995.12982630
  PAW double counting   =     46365.14764523   -47395.88140329
  entropy T*S    EENTRO =         0.00000000
  eigenvalues    EBANDS =     -3915.40704248
  atomic energy  EATOM  =     53259.27193834
  Solvation  Ediel_sol  =         0.00000000
  ---------------------------------------------------
  free energy    TOTEN  =       -63.70091356 eV

  energy without entropy =      -63.70091356  energy(sigma->0) =      -63.70091356


--------------------------------------------------------------------------------------------------------




--------------------------------------- Iteration      1(   3)  ---------------------------------------


     EDDAV:  cpu time    189.2260: real time     27.1050
 BZINTS: Fermi energy:    1.383836;  566.000000 electrons
         Band energy:-0.437521E+04;  BLOECHL correction:   -0.002589
       DOS:  cpu time      0.5353: real time      0.0765
    --------------------------------------------
      LOOP:  cpu time    189.7613: real time     27.1815

 eigenvalue-minimisations  : 15252
 total energy-change (2. order) :-0.4598046E+03  (-0.4091046E+03)
 number of electron     566.0000000 magnetization      63.0000000
 augmentation part      566.0000000 magnetization      63.0000000

 DIPCOR: dipole corrections for dipol
 direction  3 min pos   233,
 dipolmoment           0.000000      0.000000      0.000011 electrons x Angstroem
 Tr[quadrupol]     -7088.522139

 energy correction for charged system         0.000000 eV
 dipol+quadrupol energy correction           -0.000000 eV
 added-field ion interaction          0.000063 eV  (added to PSCEN)


 Free energy of the ion-electron system (eV)
  ---------------------------------------------------
  alpha Z        PSCENC =      1814.29861831
  Ewald energy   TEWEN  =    211611.40719319
  -Hartree energ DENC   =   -262797.66768916
  -exchange      EXHF   =         0.00000000
  -V(xc)+E(xc)   XCENC  =       995.12982630
  PAW double counting   =     46365.14764523   -47395.88140329
  entropy T*S    EENTRO =         0.00000000
  eigenvalues    EBANDS =     -4375.21165119
  atomic energy  EATOM  =     53259.27193834
  Solvation  Ediel_sol  =         0.00000000
  ---------------------------------------------------
  free energy    TOTEN  =      -523.50552228 eV

  energy without entropy =     -523.50552228  energy(sigma->0) =     -523.50552228


--------------------------------------------------------------------------------------------------------




--------------------------------------- Iteration      1(   4)  ---------------------------------------


     EDDAV:  cpu time    291.4533: real time     41.7617
 BZINTS: Fermi energy:    1.237163;  566.000000 electrons
         Band energy:-0.443319E+04;  BLOECHL correction:   -0.002490
       DOS:  cpu time      0.5830: real time      0.0840
    --------------------------------------------
      LOOP:  cpu time    292.0363: real time     41.8457

 eigenvalue-minimisations  : 26176
 total energy-change (2. order) :-0.5798131E+02  (-0.5434556E+02)
 number of electron     566.0000000 magnetization      63.0000000
 augmentation part      566.0000000 magnetization      63.0000000

 DIPCOR: dipole corrections for dipol
 direction  3 min pos   233,
 dipolmoment           0.000000      0.000000      0.000011 electrons x Angstroem
 Tr[quadrupol]     -7088.522139

 energy correction for charged system         0.000000 eV
 dipol+quadrupol energy correction           -0.000000 eV
 added-field ion interaction          0.000063 eV  (added to PSCEN)


 Free energy of the ion-electron system (eV)
  ---------------------------------------------------
  alpha Z        PSCENC =      1814.29861831
  Ewald energy   TEWEN  =    211611.40719319
  -Hartree energ DENC   =   -262797.66768916
  -exchange      EXHF   =         0.00000000
  -V(xc)+E(xc)   XCENC  =       995.12982630
  PAW double counting   =     46365.14764523   -47395.88140329
  entropy T*S    EENTRO =         0.00000000
  eigenvalues    EBANDS =     -4433.19296233
  atomic energy  EATOM  =     53259.27193834
  Solvation  Ediel_sol  =         0.00000000
  ---------------------------------------------------
  free energy    TOTEN  =      -581.48683341 eV

  energy without entropy =     -581.48683341  energy(sigma->0) =     -581.48683341


--------------------------------------------------------------------------------------------------------




--------------------------------------- Iteration      1(   5)  ---------------------------------------


     EDDAV:  cpu time    275.8401: real time     39.5235
 BZINTS: Fermi energy:    1.213869;  566.000000 electrons
         Band energy:-0.443643E+04;  BLOECHL correction:   -0.002385
       DOS:  cpu time      0.6051: real time      0.0881
    CHARGE:  cpu time      1.6581: real time      0.4551
    MIXING:  cpu time      0.1072: real time      0.0158
    --------------------------------------------
      LOOP:  cpu time    278.2111: real time     40.0825

 eigenvalue-minimisations  : 24464
 total energy-change (2. order) :-0.3237309E+01  (-0.3049550E+01)
 number of electron     566.0000218 magnetization      62.0089101
 augmentation part      258.2018531 magnetization      43.6066935

 DIPCOR: dipole corrections for dipol
 direction  3 min pos   233,
 dipolmoment           0.000000      0.000000      0.000011 electrons x Angstroem
 Tr[quadrupol]     -7088.522139

 energy correction for charged system         0.000000 eV
 dipol+quadrupol energy correction           -0.000000 eV
 added-field ion interaction          0.000063 eV  (added to PSCEN)


 Broyden mixing:
  rms(total) = 0.93154E+01    rms(broyden)= 0.93130E+01
  rms(prec ) = 0.10413E+02
  weight for this iteration     100.00

 Free energy of the ion-electron system (eV)
  ---------------------------------------------------
  alpha Z        PSCENC =      1814.29861831
  Ewald energy   TEWEN  =    211611.40719319
  -Hartree energ DENC   =   -262797.66768916
  -exchange      EXHF   =         0.00000000
  -V(xc)+E(xc)   XCENC  =       995.12982630
  PAW double counting   =     46365.14764523   -47395.88140329
  entropy T*S    EENTRO =         0.00000000
  eigenvalues    EBANDS =     -4436.43027100
  atomic energy  EATOM  =     53259.27193834
  Solvation  Ediel_sol  =         0.00000000
  ---------------------------------------------------
  free energy    TOTEN  =      -584.72414208 eV

  energy without entropy =     -584.72414208  energy(sigma->0) =     -584.72414208


--------------------------------------------------------------------------------------------------------




--------------------------------------- Iteration      1(   6)  ---------------------------------------


    POTLOK:  cpu time      6.7913: real time      1.4268
    SETDIJ:  cpu time      0.9399: real time      0.1343
     EDDAV:  cpu time    300.1205: real time     43.0742
 BZINTS: Fermi energy:    2.421794;  566.000000 electrons
         Band energy:-0.380627E+04;  BLOECHL correction:   -0.012343
       DOS:  cpu time      0.5264: real time      0.0752
    CHARGE:  cpu time      1.6586: real time      0.4479
    MIXING:  cpu time      0.1051: real time      0.0150
    --------------------------------------------
      LOOP:  cpu time    310.1418: real time     45.1735

 eigenvalue-minimisations  : 26968
 total energy-change (2. order) :-0.1249668E+03  (-0.3055640E+02)
 number of electron     566.0000222 magnetization      60.2828419
 augmentation part      257.4744709 magnetization      52.0187598

 DIPCOR: dipole corrections for dipol
 direction  3 min pos   231,
 dipolmoment           0.000000      0.000000      1.251597 electrons x Angstroem
 Tr[quadrupol]     -7112.288987

 energy correction for charged system         0.000000 eV
 dipol+quadrupol energy correction           -0.082850 eV
 added-field ion interaction         -3.394079 eV  (added to PSCEN)


 Broyden mixing:
  rms(total) = 0.15007E+02    rms(broyden)= 0.15005E+02
  rms(prec ) = 0.19832E+02
  weight for this iteration     100.00

 eigenvalues of (default mixing * dielectric matrix)
  average eigenvalue GAMMA=   0.2638
  0.2638

 Free energy of the ion-electron system (eV)
  ---------------------------------------------------
  alpha Z        PSCENC =      1810.82162591
  Ewald energy   TEWEN  =    211611.40719319
  -Hartree energ DENC   =   -263554.59360658
  -exchange      EXHF   =         0.00000000
  -V(xc)+E(xc)   XCENC  =       987.20849608
  PAW double counting   =     46652.73418450   -47670.27551391
  entropy T*S    EENTRO =         0.00000000
  eigenvalues    EBANDS =     -3806.26526119
  atomic energy  EATOM  =     53259.27193834
  Solvation  Ediel_sol  =         0.00000000
  ---------------------------------------------------
  free energy    TOTEN  =      -709.69094365 eV

  energy without entropy =     -709.69094365  energy(sigma->0) =     -709.69094365


--------------------------------------------------------------------------------------------------------




--------------------------------------- Iteration      1(   7)  ---------------------------------------


    POTLOK:  cpu time      6.7565: real time      1.4188
    SETDIJ:  cpu time      0.9401: real time      0.1343
     EDDAV:  cpu time    307.2124: real time     44.0803
 BZINTS: Fermi energy:    1.763479;  566.000000 electrons
         Band energy:-0.424464E+04;  BLOECHL correction:   -0.005594
       DOS:  cpu time      0.5161: real time      0.0743
    CHARGE:  cpu time      1.5707: real time      0.4445
    MIXING:  cpu time      0.1254: real time      0.0183
    --------------------------------------------
      LOOP:  cpu time    317.1212: real time     46.1705

 eigenvalue-minimisations  : 27544
 total energy-change (2. order) : 0.3411166E+02  (-0.3001181E+02)
 number of electron     566.0000141 magnetization      59.1952118
 augmentation part      261.1872915 magnetization      51.8355609

 DIPCOR: dipole corrections for dipol
 direction  3 min pos   236,
 dipolmoment           0.000000      0.000000     -1.554707 electrons x Angstroem
 Tr[quadrupol]     -7099.835166

 energy correction for charged system         0.000000 eV
 dipol+quadrupol energy correction           -0.127839 eV
 added-field ion interaction        -28.466143 eV  (added to PSCEN)


 Broyden mixing:
  rms(total) = 0.14488E+02    rms(broyden)= 0.14486E+02
  rms(prec ) = 0.22175E+02
  weight for this iteration     100.00

 eigenvalues of (default mixing * dielectric matrix)
  average eigenvalue GAMMA=   0.2063
  0.2965  0.1161

 Free energy of the ion-electron system (eV)
  ---------------------------------------------------
  alpha Z        PSCENC =      1785.70457272
  Ewald energy   TEWEN  =    211611.40719319
  -Hartree energ DENC   =   -263058.14919914
  -exchange      EXHF   =         0.00000000
  -V(xc)+E(xc)   XCENC  =       984.97471673
  PAW double counting   =     46736.97259813   -47751.12081945
  entropy T*S    EENTRO =         0.00000000
  eigenvalues    EBANDS =     -4244.64028401
  atomic energy  EATOM  =     53259.27193834
  Solvation  Ediel_sol  =         0.00000000
  ---------------------------------------------------
  free energy    TOTEN  =      -675.57928349 eV

  energy without entropy =     -675.57928349  energy(sigma->0) =     -675.57928349


--------------------------------------------------------------------------------------------------------




--------------------------------------- Iteration      1(   8)  ---------------------------------------


    POTLOK:  cpu time      6.7936: real time      1.4246
    SETDIJ:  cpu time      0.9374: real time      0.1339
     EDDAV:  cpu time    301.6825: real time     43.2651
 BZINTS: Fermi energy:    1.287158;  566.000000 electrons
         Band energy:-0.427526E+04;  BLOECHL correction:   -0.012508
       DOS:  cpu time      0.6151: real time      0.0899
    CHARGE:  cpu time      1.5614: real time      0.4455
    MIXING:  cpu time      0.1050: real time      0.0150
    --------------------------------------------
      LOOP:  cpu time    311.6950: real time     45.3739

 eigenvalue-minimisations  : 27048
 total energy-change (2. order) : 0.1216564E+03  (-0.1471442E+02)
 number of electron     566.0000225 magnetization      57.4108110
 augmentation part      261.8860133 magnetization      42.9749172

 DIPCOR: dipole corrections for dipol
 direction  3 min pos   233,
 dipolmoment           0.000000      0.000000      0.533401 electrons x Angstroem
 Tr[quadrupol]     -7098.201110

 energy correction for charged system         0.000000 eV
 dipol+quadrupol energy correction           -0.015048 eV
 added-field ion interaction          3.038666 eV  (added to PSCEN)


 Broyden mixing:
  rms(total) = 0.90079E+01    rms(broyden)= 0.90055E+01
  rms(prec ) = 0.11267E+02
  weight for this iteration     100.00

 eigenvalues of (default mixing * dielectric matrix)
  average eigenvalue GAMMA=   0.3741
  0.6331  0.4165  0.0726

 Free energy of the ion-electron system (eV)
  ---------------------------------------------------
  alpha Z        PSCENC =      1817.32217337
  Ewald energy   TEWEN  =    211611.40719319
  -Hartree energ DENC   =   -262938.13056139
  -exchange      EXHF   =         0.00000000
  -V(xc)+E(xc)   XCENC  =       983.75222598
  PAW double counting   =     46796.85237777   -47809.13543998
  entropy T*S    EENTRO =         0.00000000
  eigenvalues    EBANDS =     -4275.26279150
  atomic energy  EATOM  =     53259.27193834
  Solvation  Ediel_sol  =         0.00000000
  ---------------------------------------------------
  free energy    TOTEN  =      -553.92288422 eV

  energy without entropy =     -553.92288422  energy(sigma->0) =     -553.92288422


--------------------------------------------------------------------------------------------------------




--------------------------------------- Iteration      1(   9)  ---------------------------------------


    POTLOK:  cpu time      6.7514: real time      1.4197
    SETDIJ:  cpu time      0.9376: real time      0.1340
     EDDAV:  cpu time    285.4165: real time     40.9704
 BZINTS: Fermi energy:    1.089807;  566.000000 electrons
         Band energy:-0.438678E+04;  BLOECHL correction:   -0.010524
       DOS:  cpu time      0.5348: real time      0.0765
    CHARGE:  cpu time      1.5186: real time      0.4439
    MIXING:  cpu time      0.1178: real time      0.0168
    --------------------------------------------
      LOOP:  cpu time    295.2768: real time     43.0612

 eigenvalue-minimisations  : 25416
 total energy-change (2. order) : 0.2221857E+02  (-0.6649878E+01)
 number of electron     566.0000202 magnetization      56.4249393
 augmentation part      264.4395146 magnetization      38.4310246

 DIPCOR: dipole corrections for dipol
 direction  3 min pos   233,
 dipolmoment           0.000000      0.000000     -0.056782 electrons x Angstroem
 Tr[quadrupol]     -7097.623439

 energy correction for charged system         0.000000 eV
 dipol+quadrupol energy correction           -0.000171 eV
 added-field ion interaction         -0.323472 eV  (added to PSCEN)


 Broyden mixing:
  rms(total) = 0.69011E+01    rms(broyden)= 0.69001E+01
  rms(prec ) = 0.73320E+01
  weight for this iteration     100.00

 eigenvalues of (default mixing * dielectric matrix)
  average eigenvalue GAMMA=   0.5801
  1.5464  0.3498  0.3498  0.0745

 Free energy of the ion-electron system (eV)
  ---------------------------------------------------
  alpha Z        PSCENC =      1813.97491214
  Ewald energy   TEWEN  =    211611.40719319
  -Hartree energ DENC   =   -262803.02982613
  -exchange      EXHF   =         0.00000000
  -V(xc)+E(xc)   XCENC  =       978.29979878
  PAW double counting   =     47024.38423581   -48029.22784672
  entropy T*S    EENTRO =         0.00000000
  eigenvalues    EBANDS =     -4386.78471753
  atomic energy  EATOM  =     53259.27193834
  Solvation  Ediel_sol  =         0.00000000
  ---------------------------------------------------
  free energy    TOTEN  =      -531.70431211 eV

  energy without entropy =     -531.70431211  energy(sigma->0) =     -531.70431211


--------------------------------------------------------------------------------------------------------




--------------------------------------- Iteration      1(  10)  ---------------------------------------


    POTLOK:  cpu time      6.7289: real time      1.4184
    SETDIJ:  cpu time      0.9373: real time      0.1340
     EDDAV:  cpu time    275.4956: real time     39.4825
 BZINTS: Fermi energy:    0.693122;  566.000000 electrons
         Band energy:-0.457160E+04;  BLOECHL correction:   -0.003759
       DOS:  cpu time      0.5252: real time      0.0750
    CHARGE:  cpu time      1.6601: real time      0.4446
    MIXING:  cpu time      0.1227: real time      0.0175
    --------------------------------------------
      LOOP:  cpu time    285.4699: real time     41.5721

 eigenvalue-minimisations  : 24352
 total energy-change (2. order) : 0.1620339E+02  (-0.4846387E+01)
 number of electron     566.0000234 magnetization      55.1819531
 augmentation part      272.2879878 magnetization      36.6180348

 DIPCOR: dipole corrections for dipol
 direction  3 min pos   231,
 dipolmoment           0.000000      0.000000      0.141252 electrons x Angstroem
 Tr[quadrupol]     -7098.304972

 energy correction for charged system         0.000000 eV
[...]
  206        set_dd_paw                            0.083745                            1   3
  207          m_sumb_d                              0.008069                          7   4
  208        strkin                                0.069351                            1   3
  209          m_sumb_d                              0.000034                          1   4
  210        strelo                                0.006238                            1   3
  211          m_sumb_d                              0.000012                          2   4
  212        strnlr                                9.441090                            1   3
  213          rspher_all                            0.517801                          9   4
  214          phaser                                1.495384                         90   4
  215          rpro_isp                              7.106295                         90   4
  216            fftwav_mpi                            0.304018                    16740   5
  217              fftwav                                0.279766                  16740   6
  218                fft3d                                 0.172947                16740   7
  219            rpromu_acc                            6.744218                     4320   5
  220          m_sumb_d                              0.251117                          1   4
  221        fft3d_mpi                             0.241782                           22   3
  222          fftbrc_mpi                            0.220383                         22   4
  223            fftbas_plan_mpi                       0.220352                       22   5
  224              dfftw_execute                         0.066818                     66   6
  225              map_forward                           0.065787                     20   6
  226                map_gather                            0.017876                   10   7
  227                m_alltoallv_z                         0.037621                   10   7
  228                map_scatter                           0.010204                   10   7
  229              map_backward                          0.085709                     24   6
  230                map_gather                            0.009322                   12   7
  231                m_alltoallv_z                         0.055300                   12   7
  232                map_scatter                           0.020993                   12   7
  233        m_sumb_d                              0.000382                            5   3
  234        forhar                                0.095089                            2   3
  235          m_sumb_d                              0.002809                          2   4
  236        strehar                               0.004026                            1   3
  237          m_sumb_d                              0.000152                          1   4
  238        chggra                                0.076313                            1   3
  239          fft3d_mpi                             0.070591                          3   4
  240            fftbrc_mpi                            0.069064                        3   5
  241              fftbas_plan_mpi                       0.069059                      3   6
  242                map_forward                           0.044269                    4   7
  243                  map_gather                            0.000015                  2   8
  244                  m_alltoallv_z                         0.044221                  2   8
  245                  map_scatter                           0.000015                  2   8
  246                map_backward                          0.000032                    2   7
  247                  map_gather                            0.000004                  1   8
  248                  m_alltoallv_z                         0.000018                  1   8
  249                  map_scatter                           0.000003                  1   8
  250          m_sumb_d                              0.000009                          2   4
  251          pothar                                0.000413                          1   4
  252            m_sumb_d                              0.000004                        1   5
  253        brmix                                 0.131447                            1   3
  254          m_sumb_d                              0.000121                          6   4
  255          brpre                                 0.000233                          2   4
  256          setg0                                 0.006246                          1   4
  257          broyd                                 0.119912                          1   4
  258            brget                                 0.010297                      326   5
  259            brsav                                 0.016770                      163   5
  260            m_sumb_d                              0.015935                       47   5
  261        m_bcast_d                             0.000054                            2   3
  262      potlok                                1.446824                              1   2
  263        fft3d_mpi                             0.282526                           26   3
  264          fftbrc_mpi                            0.252734                         26   4
  265            fftbas_plan_mpi                       0.252706                       26   5
  266              dfftw_execute                         0.075949                     78   6
  267              map_forward                           0.087475                     28   6
  268                map_gather                            0.024073                   16   7
  269                m_alltoallv_z                         0.050864                   16   7
  270                map_scatter                           0.012435                   16   7
  271              map_backward                          0.085539                     24   6
  272                map_gather                            0.009333                   12   7
  273                m_alltoallv_z                         0.053632                   12   7
  274                map_scatter                           0.022472                   12   7
  275        m_sumb_d                              0.000779                            8   3
  276        fewald                                0.000086                            2   3
  277          rsp                                   0.000053                          2   4
  278          rcp                                   0.000028                          2   4
  279        pothar                                0.009547                            1   3
  280          m_sumb_d                              0.002048                          1   4
  281        m_bcast_d                             0.003383                            2   3
  282      potlok_metagga                        0.000000                              1   2
  283      set_dd_magatom                        0.000006                              1   2
  284      set_dd_paw                            0.081630                              1   2
  285        m_sumb_d                              0.005496                            7   3
  286      m_bcast_d                             0.000027                              2   2
  287      fftwav_mpi                           20.672980                           5580   2
  288        fftwav                               20.637525                         5580   3
  289          fft3d                                14.646401                       5580   4
  290      densta                                0.072128                              1   2
 
 Flat profile
 ============
 
             routine name                   CPU           calls
 ---------------------------------------------------------------
 eddav                                1122.240307          55
 lapack                                245.961895      213957
 m_sumb_d                              232.829821      655569
 rpromu_acc                            107.752662      168497
 hamiltmu                               92.879123      213957
 total_time                             82.695189           1
 potlok                                 58.903432          52
 newband                                50.756485      215057
 racc0mu_acc                            48.552029      213957
 m_alltoall_d                           41.896870     3069191
 fft3d                                  32.764960     1267905
 orth1                                  26.967605      641891
 raccmu_                                23.989060      213957
 phaser                                 20.497550        1230
 overl_mu                               18.933799      213957
 w1_copy                                13.753755     1267539
 redis_pw                               12.691257     1167479
 fftwav                                 12.485423      845392
 ggemm                                  11.344938      265657
 m_bcast_z                              10.514288      221397
 redis_proj                              7.287469     1487712
 m_alltoallv_z                           5.976782        1832
 overl                                   5.486058      742746
 dfftw_execute                           4.312618        4809
 densta                                  4.192860          56
 setdij_                                 4.177013          79
 set_dd_paw                              4.011543          53
 lincom                                  3.708221        1120
 map_scatter                             2.767821        1832
 augmentation_charge                     2.583917          51
 m_bcast_d                               2.164966      428022
 fft3d_mpi                               2.134310      424119
 eccp                                    2.099501      102300
 kinhamil                                1.948471      422513
 fftext_mpi                              1.900527      422513
 broyd                                   1.861445          51
 map_gather                              1.727716        1832
 vhamil                                  1.545641      422513
 fftwav_mpi                              1.471651      845392
 apply_precond                           1.365266      320213
 depsum                                  1.254421          51
 force_and_stress                        1.222109           1
 elmin                                   1.127973           1
 fftbas_plan_mpi                         0.954278        1606
 orthch                                  0.805436           1
 choleski                                0.799683          20
 rspher_all                              0.756722          14
 setup_precond                           0.726456      102300
 init_hip                                0.421439           1
 pothar                                  0.391010          53
 setg0                                   0.320670          53
 brmix                                   0.303103          51
 soft_charge                             0.289959          51
 pw_charge                               0.196907       72906
 brget                                   0.196730        6887
 proall                                  0.179445           1
 set_charge                              0.171873          51
 w1_projall                              0.157275      162257
 brsav                                   0.124320        1739
 forhar                                  0.092280           2
 rpro_isp                                0.084663         130
 stufak                                  0.083648           1
 truncate_high_frequency_w1              0.078376      524813
 strnlr                                  0.070493           1
 strkin                                  0.069317           1
 forloc                                  0.046944           1
 fft_gq                                  0.037944          51
 fornlr                                  0.029060           1
 brpre                                   0.012441         102
 inisym                                  0.011848           1
 rsp                                     0.007081         105
 map_backward                            0.006280        1694
 strelo                                  0.006226           1
 map_forward                             0.005739        1518
 chggra                                  0.005300           1
 strehar                                 0.003874           1
 hip_hipfft_makeplan                     0.002901           6
 brgrid                                  0.002413           1
 fftbrc_mpi                              0.002013        1606
 rcp                                     0.001793         105
 fewald                                  0.001740         105
 hip_init_hipblas                        0.000492           1
 set_dd_magatom                          0.000323          53
 vectorpot                               0.000310          52
 fordep                                  0.000207           1
 hip_init_rocsolver                      0.000068           1
 crpa_reader                             0.000067           1
 potlok_metagga                          0.000028          52
 posmap                                  0.000016           2
 hip_hipfft_makeplans                    0.000009           3
 rotate_active_occupied_orbital          0.000007           1
 redis_pw_over_bands                     0.000000           1
 ---------------------------------------------------------------
  summed up times    2342.19795298576     
 
 Accumulative profile
 ====================
 
             routine name                   CPU           calls
 ---------------------------------------------------------------
 total_time                           2342.197953           1
 elmin                                2205.777732           1
 eddav                                2095.677656          55
 lapack                                245.961895      213957
 m_sumb_d                              232.829821      655569
 hamiltmu                              195.727954      213957
 rpromu_acc                            107.752662      168497
 w1_projall                             98.112483      162257
 raccmu_                                91.474888      213957
 potlok                                 74.090935          52
 newband                                62.598218      215057
 racc0mu_acc                            48.552029      213957
 m_alltoall_d                           41.896870     3069191
 fftwav_mpi                             40.997884      845392
 fftwav                                 39.526233      845392
 redis_pw                               33.908175     1167479
 fft3d                                  32.764960     1267905
 redis_proj                             27.967421     1487712
 orth1                                  26.967605      641891
 fft3d_mpi                              23.611707      424119
 set_charge                             22.691021          51
 phaser                                 20.497550        1230
 overl_mu                               18.933799      213957
 soft_charge                            17.425888          51
 force_and_stress                       16.405998           1
 fftbrc_mpi                             15.753247        1606
 fftbas_plan_mpi                        15.751234        1606
 w1_copy                                13.753755     1267539
 ggemm                                  11.344938      265657
 rpro_isp                               10.757330         130
 m_bcast_z                              10.514288      221397
 kinhamil                                9.828301      422513
 strnlr                                  9.441090           1
 fftext_mpi                              7.879831      422513
 orthch                                  6.089210           1
 map_backward                            6.030803        1694
 m_alltoallv_z                           5.976782        1832
 overl                                   5.486058      742746
 map_forward                             4.453535        1518
 set_dd_paw                              4.338868          53
 dfftw_execute                           4.312618        4809
 setdij_                                 4.202663          79
 densta                                  4.192860          56
 augmentation_charge                     3.802696          51
 lincom                                  3.708221        1120
 brmix                                   3.208531          51
 fornlr                                  3.150264           1
 map_scatter                             2.767821        1832
 broyd                                   2.528602          51
 m_bcast_d                               2.164966      428022
 eccp                                    2.099501      102300
 map_gather                              1.727716        1832
 proall                                  1.573688           1
 vhamil                                  1.545641      422513
 apply_precond                           1.365266      320213
 depsum                                  1.290565          51
 choleski                                0.799683          20
 rspher_all                              0.756722          14
 fft_gq                                  0.732856          51
 setup_precond                           0.726456      102300
 pothar                                  0.448101          53
 init_hip                                0.421439           1
 setg0                                   0.320670          53
 fordep                                  0.316382           1
 pw_charge                               0.196907       72906
 brget                                   0.196730        6887
 brsav                                   0.124320        1739
 forhar                                  0.095089           2
 stufak                                  0.083648           1
 truncate_high_frequency_w1              0.078376      524813
 chggra                                  0.076313           1
 strkin                                  0.069351           1
 forloc                                  0.048176           1
 brpre                                   0.012441         102
 inisym                                  0.011864           1
 fewald                                  0.010716         105
 rsp                                     0.007081         105
 strelo                                  0.006238           1
 strehar                                 0.004026           1
 hip_hipfft_makeplans                    0.002910           3
 hip_hipfft_makeplan                     0.002901           6
 brgrid                                  0.002413           1
 rcp                                     0.001793         105
 hip_init_hipblas                        0.000492           1
 set_dd_magatom                          0.000323          53
 vectorpot                               0.000310          52
 hip_init_rocsolver                      0.000068           1
 crpa_reader                             0.000067           1
 potlok_metagga                          0.000028          52
 posmap                                  0.000016           2
 rotate_active_occupied_orbital          0.000007           1
 redis_pw_over_bands                     0.000000           1
 ---------------------------------------------------------------
 
Profiling took   4.687680  1.858672  0.002891  0.002760 seconds
Profiling took   2.670172 seconds
