srun: ROUTE: split_hostlist: hl=b02r3n17 tree_width 0
 running on    4 total cores
 distrk:  each k-point on    4 cores,    1 groups
 distr:  one band on    1 cores,    4 groups
 HIP runtime initialized ...    4 DCUs will be used
 Created    4 streams on each DCU
 vasp.6.3.2 27Jun22 (build Mar 15 2023 15:45:48) complex                        
  
 POSCAR found type information on POSCAR FeCrPb
 POSCAR found :  3 types and      63 ions
 Reading from existing POTCAR
 -----------------------------------------------------------------------------
|                                                                             |
|           W    W    AA    RRRRR   N    N  II  N    N   GGGG   !!!           |
|           W    W   A  A   R    R  NN   N  II  NN   N  G    G  !!!           |
|           W    W  A    A  R    R  N N  N  II  N N  N  G       !!!           |
|           W WW W  AAAAAA  RRRRR   N  N N  II  N  N N  G  GGG   !            |
|           WW  WW  A    A  R   R   N   NN  II  N   NN  G    G                |
|           W    W  A    A  R    R  N    N  II  N    N   GGGG   !!!           |
|                                                                             |
|     You use a magnetic or noncollinear calculation, but did not specify     |
|     the initial magnetic moment with the MAGMOM tag. Note that a            |
|     default of 1 will be used for all atoms. This ferromagnetic setup       |
|     may break the symmetry of the crystal, in particular it may rule        |
|     out finding an antiferromagnetic solution. Thence, we recommend         |
|     setting the initial magnetic moment manually or verifying carefully     |
|     that this magnetic setup is desired.                                    |
|                                                                             |
 -----------------------------------------------------------------------------

 scaLAPACK will be used selectively (only on CPU)
 Reading from existing POTCAR
 LDA part: xc-table for Pade appr. of Perdew
 POSCAR found type information on POSCAR FeCrPb
 POSCAR found :  3 types and      63 ions
 POSCAR, INCAR and KPOINTS ok, starting setup
 FFT: planning ... GRIDC
 FFT: planning ... GRID_SOFT
 FFT: planning ... GRID
 WAVECAR not read
 entering main loop
       N       E                     dE             d eps       ncg     rms          rms(c)
DAV:   1     0.561603329726E+04    0.56160E+04   -0.24169E+05 15792   0.144E+03
DAV:   2    -0.637009135610E+02   -0.56797E+04   -0.54799E+04 14880   0.423E+02
DAV:   3    -0.523505522276E+03   -0.45980E+03   -0.40910E+03 15252   0.164E+02
DAV:   4    -0.581486833414E+03   -0.57981E+02   -0.54346E+02 26176   0.448E+01
DAV:   5    -0.584724142081E+03   -0.32373E+01   -0.30496E+01 24464   0.104E+01    0.932E+01
DAV:   6    -0.709690943654E+03   -0.12497E+03   -0.30556E+02 26968   0.834E+01    0.150E+02
DAV:   7    -0.675579283486E+03    0.34112E+02   -0.30012E+02 27544   0.110E+02    0.145E+02
DAV:   8    -0.553922884222E+03    0.12166E+03   -0.14714E+02 27048   0.748E+01    0.901E+01
DAV:   9    -0.531704312110E+03    0.22219E+02   -0.66499E+01 25416   0.365E+01    0.690E+01
DAV:  10    -0.515500925823E+03    0.16203E+02   -0.48464E+01 24352   0.279E+01    0.594E+01
DAV:  11    -0.498429207761E+03    0.17072E+02   -0.63902E+01 21280   0.306E+01    0.462E+01
DAV:  12    -0.493530430768E+03    0.48988E+01   -0.32589E+01 20952   0.207E+01    0.364E+01
DAV:  13    -0.493895930187E+03   -0.36550E+00   -0.50896E+00 21072   0.895E+00    0.354E+01
DAV:  14    -0.493828263315E+03    0.67667E-01   -0.76322E-01 22304   0.254E+00    0.364E+01
DAV:  15    -0.495282968695E+03   -0.14547E+01   -0.77081E-01 26944   0.257E+00    0.384E+01
DAV:  16    -0.497105035605E+03   -0.18221E+01   -0.39651E+00 26088   0.713E+00    0.337E+01
DAV:  17    -0.500316879173E+03   -0.32118E+01   -0.56457E+00 24336   0.832E+00    0.271E+01
DAV:  18    -0.501835604520E+03   -0.15187E+01   -0.33053E+00 24808   0.666E+00    0.246E+01
DAV:  19    -0.502612250791E+03   -0.77665E+00   -0.98037E-01 23224   0.298E+00    0.239E+01
DAV:  20    -0.502826910990E+03   -0.21466E+00   -0.26618E-01 24192   0.191E+00    0.230E+01
DAV:  21    -0.503008065134E+03   -0.18115E+00   -0.55875E-01 25880   0.317E+00    0.206E+01
DAV:  22    -0.503408854192E+03   -0.40079E+00   -0.99516E-01 25424   0.428E+00    0.174E+01
DAV:  23    -0.503737391483E+03   -0.32854E+00   -0.64226E-01 25560   0.326E+00    0.154E+01
DAV:  24    -0.503971674083E+03   -0.23428E+00   -0.39603E-01 25024   0.201E+00    0.141E+01
DAV:  25    -0.504464194389E+03   -0.49252E+00   -0.11715E+00 26720   0.431E+00    0.117E+01
DAV:  26    -0.504839943210E+03   -0.37575E+00   -0.19075E+00 25136   0.365E+00    0.913E+00
DAV:  27    -0.504893243931E+03   -0.53301E-01   -0.88958E-01 25224   0.311E+00    0.779E+00
DAV:  28    -0.504921831604E+03   -0.28588E-01   -0.16584E-01 22248   0.165E+00    0.678E+00
DAV:  29    -0.504984596229E+03   -0.62765E-01   -0.23145E-01 25856   0.148E+00    0.572E+00
DAV:  30    -0.505014327635E+03   -0.29731E-01   -0.15657E-01 24224   0.107E+00    0.524E+00
DAV:  31    -0.505046422074E+03   -0.32094E-01   -0.65300E-02 25376   0.810E-01    0.480E+00
DAV:  32    -0.505079461651E+03   -0.33040E-01   -0.47444E-02 25352   0.622E-01    0.454E+00
DAV:  33    -0.505110001844E+03   -0.30540E-01   -0.24308E-02 25328   0.446E-01    0.429E+00
DAV:  34    -0.505198908209E+03   -0.88906E-01   -0.16248E-01 26320   0.109E+00    0.372E+00
DAV:  35    -0.505267261060E+03   -0.68353E-01   -0.18360E-01 25904   0.116E+00    0.298E+00
DAV:  36    -0.505287241003E+03   -0.19980E-01   -0.13207E-01 25112   0.114E+00    0.221E+00
DAV:  37    -0.505290054151E+03   -0.28131E-02   -0.23570E-02 23328   0.606E-01    0.184E+00
DAV:  38    -0.505293010593E+03   -0.29564E-02   -0.25652E-02 25256   0.516E-01    0.142E+00
DAV:  39    -0.505291144944E+03    0.18656E-02   -0.18857E-02 24616   0.388E-01    0.120E+00
DAV:  40    -0.505293010502E+03   -0.18656E-02   -0.81746E-03 24704   0.305E-01    0.964E-01
DAV:  41    -0.505292554127E+03    0.45637E-03   -0.13419E-02 24944   0.321E-01    0.835E-01
DAV:  42    -0.505293392261E+03   -0.83813E-03   -0.87598E-03 25416   0.282E-01    0.696E-01
DAV:  43    -0.505293677306E+03   -0.28505E-03   -0.39964E-03 24568   0.167E-01    0.538E-01
DAV:  44    -0.505294041651E+03   -0.36434E-03   -0.21249E-03 24784   0.145E-01    0.422E-01
DAV:  45    -0.505294138245E+03   -0.96594E-04   -0.10610E-03 24312   0.110E-01    0.323E-01
DAV:  46    -0.505294240546E+03   -0.10230E-03   -0.70121E-04 25064   0.964E-02    0.262E-01
DAV:  47    -0.505294222099E+03    0.18448E-04   -0.49579E-04 25088   0.769E-02    0.190E-01
DAV:  48    -0.505294280343E+03   -0.58244E-04   -0.33559E-04 23288   0.513E-02    0.164E-01
DAV:  49    -0.505294370019E+03   -0.89677E-04   -0.14891E-04 22024   0.385E-02    0.146E-01
DAV:  50    -0.505294382671E+03   -0.12652E-04   -0.17027E-04 23880   0.538E-02    0.103E-01
DAV:  51    -0.505294348609E+03    0.34062E-04   -0.13919E-04 22176   0.485E-02    0.684E-02
DAV:  52    -0.505294360359E+03   -0.11750E-04   -0.42788E-05 13664   0.213E-02    0.555E-02
DAV:  53    -0.505294379133E+03   -0.18774E-04   -0.18968E-05 10648   0.195E-02    0.450E-02
DAV:  54    -0.505294404281E+03   -0.25148E-04   -0.52209E-05 15824   0.157E-02    0.350E-02
DAV:  55    -0.505294397789E+03    0.64918E-05   -0.17648E-05  9488   0.147E-02
   1 F= -.50529440E+03 E0= -.50529440E+03  d E =0.000000E+00  mag=   112.5533
 writing wavefunctions
 -----------------------------------------------------------------------------
|                                                                             |
|           W    W    AA    RRRRR   N    N  II  N    N   GGGG   !!!           |
|           W    W   A  A   R    R  NN   N  II  NN   N  G    G  !!!           |
|           W    W  A    A  R    R  N N  N  II  N N  N  G       !!!           |
|           W WW W  AAAAAA  RRRRR   N  N N  II  N  N N  G  GGG   !            |
|           WW  WW  A    A  R   R   N   NN  II  N   NN  G    G                |
|           W    W  A    A  R    R  N    N  II  N    N   GGGG   !!!           |
|                                                                             |
|     Tetrahedron method does not include variations of the Fermi             |
|     occupations, so forces and stress will be inaccurate. We suggest        |
|     using a different smearing scheme ISMEAR = 1 or 2 for metals in         |
|     relaxations.                                                            |
|                                                                             |
 -----------------------------------------------------------------------------

 PROFILE, used timers:     290
