<?xml version="1.0" encoding="ISO-8859-1"?>
<modeling>
 <generator>
  <i name="program" type="string">vasp </i>
  <i name="version" type="string">6.3.2  </i>
  <i name="subversion" type="string">27Jun22 (build Mar 15 2023 15:45:48) complex                          parallel </i>
  <i name="platform" type="string">LinuxIFC </i>
  <i name="date" type="string">2025 02 10 </i>
  <i name="time" type="string">23:37:29 </i>
 </generator>
 <incar>
  <i type="string" name="SYSTEM">ni3al</i>
  <i type="int" name="ISTART">     0</i>
  <i type="string" name="PREC">Accurate</i>
  <i type="string" name="ALGO">Normal</i>
  <i type="int" name="ISPIN">     2</i>
  <i type="int" name="IMIX">     4</i>
  <i name="AMIX">      0.05000000</i>
  <i name="BMIX">      0.00010000</i>
  <i name="AMIN">      0.01000000</i>
  <i type="int" name="ICHARG">     2</i>
  <i type="int" name="NELM">   150</i>
  <i type="int" name="IBRION">    -1</i>
  <i name="EDIFF">      0.00001000</i>
  <i type="int" name="NSW">     0</i>
  <i type="int" name="ISIF">     2</i>
  <i name="ENCUT">    450.00000000</i>
  <i type="string" name="LREAL">Auto</i>
  <i type="int" name="ISMEAR">    -5</i>
  <i name="SIGMA">      0.10000000</i>
  <i type="int" name="LMAXMIX">     4</i>
  <i type="logical" name="LWAVE"> T  </i>
  <i type="logical" name="LCHARG"> T  </i>
  <i type="logical" name="LELF"> T  </i>
  <i type="logical" name="LDIPOL"> T  </i>
  <i type="int" name="IDIPOL">     3</i>
 </incar>
 <primitive_cell>
  <structure name="primitive_cell" >
   <crystal>
    <varray name="basis" >
     <v>       8.53269958       0.00000000       0.00000000 </v>
     <v>      -0.00051933       8.49699972       0.00000000 </v>
     <v>       0.00000000       0.00000000      23.59499931 </v>
    </varray>
    <i name="volume">   1710.69280467 </i>
    <varray name="rec_basis" >
     <v>       0.11719620       0.00000716       0.00000000 </v>
     <v>       0.00000000       0.11768860       0.00000000 </v>
     <v>       0.00000000       0.00000000       0.04238186 </v>
    </varray>
   </crystal>
   <varray name="positions" >
    <v>       0.00086000       0.99993000       0.24271000 </v>
    <v>       0.16437447       0.16799707       0.30311398 </v>
    <v>       0.49939323       0.16235766       0.30056017 </v>
    <v>       0.66822000       0.00107000       0.24272000 </v>
    <v>       0.83475155       0.16734451       0.30224043 </v>
    <v>       0.00044000       0.33497000       0.24240000 </v>
    <v>       0.16842448       0.50179797       0.30397618 </v>
    <v>       0.33469000       0.33305000       0.24267000 </v>
    <v>       0.49985389       0.50530510       0.30177478 </v>
    <v>       0.83399883       0.50065338       0.30159637 </v>
    <v>       0.16876293       0.83290627       0.30441664 </v>
    <v>       0.33342000       0.66555000       0.24261000 </v>
    <v>       0.83611603       0.83268947       0.30235251 </v>
    <v>       0.00064000       0.00119000       0.00199000 </v>
    <v>       0.00106707       0.00267859       0.36022628 </v>
    <v>       0.16843000       0.16962000       0.06269000 </v>
    <v>       0.33460000       0.00297000       0.00254000 </v>
    <v>       0.33202674       0.01155532       0.36260148 </v>
    <v>       0.50463000       0.16850000       0.06120000 </v>
    <v>       0.83272000       0.16670000       0.06193000 </v>
    <v>       0.00004000       0.33467000       0.00213000 </v>
    <v>       0.00222373       0.33643840       0.36031532 </v>
    <v>       0.16757000       0.49895000       0.06268000 </v>
    <v>       0.50099000       0.49896000       0.06206000 </v>
    <v>       0.83393000       0.50234000       0.06235000 </v>
    <v>       0.00121000       0.66785000       0.00188000 </v>
    <v>       0.99493737       0.66397820       0.36129385 </v>
    <v>       0.16792000       0.83462000       0.06228000 </v>
    <v>       0.33437000       0.66664000       0.00225000 </v>
    <v>       0.50152000       0.83563000       0.06217000 </v>
    <v>       0.66753000       0.66705000       0.00175000 </v>
    <v>       0.66908296       0.66613945       0.35902760 </v>
    <v>       0.83293000       0.83584000       0.06235000 </v>
    <v>       0.00121000       0.00098000       0.12225000 </v>
    <v>       0.16700000       0.16811000       0.18239000 </v>
    <v>       0.33470000       0.00227000       0.12192000 </v>
    <v>       0.50174000       0.16716000       0.18263000 </v>
    <v>       0.83421000       0.16639000       0.18283000 </v>
    <v>       0.16964000       0.49868000       0.18209000 </v>
    <v>       0.50219000       0.50081000       0.18317000 </v>
    <v>       0.66741000       0.33395000       0.12233000 </v>
    <v>       0.83134000       0.50253000       0.18283000 </v>
    <v>       0.00132000       0.66795000       0.12253000 </v>
    <v>       0.16898000       0.83509000       0.18243000 </v>
    <v>       0.33446000       0.66703000       0.12223000 </v>
    <v>       0.49971000       0.83538000       0.18278000 </v>
    <v>       0.66698000       0.66840000       0.12259000 </v>
    <v>       0.83488000       0.83403000       0.18294000 </v>
    <v>       0.33558000       0.99863000       0.24353000 </v>
    <v>       0.66801000       0.33262000       0.24229000 </v>
    <v>       0.00448000       0.66739000       0.24217000 </v>
    <v>       0.49786758       0.83627137       0.30245981 </v>
    <v>       0.66521000       0.67351000       0.24327000 </v>
    <v>       0.66620000       0.99680000       0.00000000 </v>
    <v>       0.65715550       0.99889406       0.36399298 </v>
    <v>       0.33213000       0.33386000       0.00135000 </v>
    <v>       0.33941913       0.32014515       0.36420188 </v>
    <v>       0.67040000       0.33673000       0.00321000 </v>
    <v>       0.65816747       0.33138650       0.36678086 </v>
    <v>       0.66728000       0.99998000       0.12246000 </v>
    <v>       0.99806000       0.33495000       0.12235000 </v>
    <v>       0.33675000       0.33238000       0.12261000 </v>
    <v>       0.33433153       0.67061631       0.39603825 </v>
   </varray>
  </structure>
  <varray name="primitive_index" >
   <v type="int" >        1 </v>
   <v type="int" >        2 </v>
   <v type="int" >        3 </v>
   <v type="int" >        4 </v>
   <v type="int" >        5 </v>
   <v type="int" >        6 </v>
   <v type="int" >        7 </v>
   <v type="int" >        8 </v>
   <v type="int" >        9 </v>
   <v type="int" >       10 </v>
   <v type="int" >       11 </v>
   <v type="int" >       12 </v>
   <v type="int" >       13 </v>
   <v type="int" >       14 </v>
   <v type="int" >       15 </v>
   <v type="int" >       16 </v>
   <v type="int" >       17 </v>
   <v type="int" >       18 </v>
   <v type="int" >       19 </v>
   <v type="int" >       20 </v>
   <v type="int" >       21 </v>
   <v type="int" >       22 </v>
   <v type="int" >       23 </v>
   <v type="int" >       24 </v>
   <v type="int" >       25 </v>
   <v type="int" >       26 </v>
   <v type="int" >       27 </v>
   <v type="int" >       28 </v>
   <v type="int" >       29 </v>
   <v type="int" >       30 </v>
   <v type="int" >       31 </v>
   <v type="int" >       32 </v>
   <v type="int" >       33 </v>
   <v type="int" >       34 </v>
   <v type="int" >       35 </v>
   <v type="int" >       36 </v>
   <v type="int" >       37 </v>
   <v type="int" >       38 </v>
   <v type="int" >       39 </v>
   <v type="int" >       40 </v>
   <v type="int" >       41 </v>
   <v type="int" >       42 </v>
   <v type="int" >       43 </v>
   <v type="int" >       44 </v>
   <v type="int" >       45 </v>
   <v type="int" >       46 </v>
   <v type="int" >       47 </v>
   <v type="int" >       48 </v>
   <v type="int" >       49 </v>
   <v type="int" >       50 </v>
   <v type="int" >       51 </v>
   <v type="int" >       52 </v>
   <v type="int" >       53 </v>
   <v type="int" >       54 </v>
   <v type="int" >       55 </v>
   <v type="int" >       56 </v>
   <v type="int" >       57 </v>
   <v type="int" >       58 </v>
   <v type="int" >       59 </v>
   <v type="int" >       60 </v>
   <v type="int" >       61 </v>
   <v type="int" >       62 </v>
   <v type="int" >       63 </v>
  </varray>
 </primitive_cell>
 <kpoints>
  <generation param="Gamma">
   <v type="int" name="divisions">       4        4        1 </v>
   <v name="usershift">      0.00000000       0.00000000       0.00000000 </v>
   <v name="genvec1">      0.25000000       0.00000000       0.00000000 </v>
   <v name="genvec2">      0.00000000       0.25000000       0.00000000 </v>
   <v name="genvec3">      0.00000000       0.00000000       1.00000000 </v>
   <v name="shift">      0.00000000       0.00000000       0.00000000 </v>
  </generation>
  <varray name="kpointlist" >
   <v>       0.00000000       0.00000000       0.00000000 </v>
   <v>       0.25000000       0.00000000       0.00000000 </v>
   <v>       0.50000000       0.00000000       0.00000000 </v>
   <v>       0.00000000       0.25000000       0.00000000 </v>
   <v>       0.25000000       0.25000000       0.00000000 </v>
   <v>       0.50000000       0.25000000       0.00000000 </v>
   <v>      -0.25000000       0.25000000       0.00000000 </v>
   <v>       0.00000000       0.50000000       0.00000000 </v>
   <v>       0.25000000       0.50000000       0.00000000 </v>
   <v>       0.50000000       0.50000000       0.00000000 </v>
  </varray>
  <varray name="weights" >
   <v>       0.06250000 </v>
   <v>       0.12500000 </v>
   <v>       0.06250000 </v>
   <v>       0.12500000 </v>
   <v>       0.12500000 </v>
   <v>       0.12500000 </v>
   <v>       0.12500000 </v>
   <v>       0.06250000 </v>
   <v>       0.12500000 </v>
   <v>       0.06250000 </v>
  </varray>
  <varray name="tetrahedronlist"  type="int" >
   <v type="int" >        2        4        8        9        9 </v>
   <v type="int" >        2        4        7        9        9 </v>
   <v type="int" >        2        4        7        7        9 </v>
   <v type="int" >        2        4        8        8        9 </v>
   <v type="int" >        2        4        4        8        9 </v>
   <v type="int" >        2        4        4        7        9 </v>
   <v type="int" >        2        4        5        5        8 </v>
   <v type="int" >        2        5        5        8        9 </v>
   <v type="int" >        2        5        8        9        9 </v>
   <v type="int" >        2        4        4        5        8 </v>
   <v type="int" >        2        4        5        8        8 </v>
   <v type="int" >        2        5        8        8        9 </v>
   <v type="int" >        2        1        2        2        4 </v>
   <v type="int" >        2        2        2        4        5 </v>
   <v type="int" >        2        2        4        5        5 </v>
   <v type="int" >        2        1        1        2        4 </v>
   <v type="int" >        2        1        2        4        4 </v>
   <v type="int" >        2        2        4        4        5 </v>
   <v type="int" >        2        1        4        7        7 </v>
   <v type="int" >        2        1        2        7        7 </v>
   <v type="int" >        2        1        2        2        7 </v>
   <v type="int" >        2        1        4        4        7 </v>
   <v type="int" >        2        1        1        4        7 </v>
   <v type="int" >        2        1        1        2        7 </v>
   <v type="int" >        2        7        9       10       10 </v>
   <v type="int" >        2        6        7       10       10 </v>
   <v type="int" >        2        6        6        7       10 </v>
   <v type="int" >        2        7        9        9       10 </v>
   <v type="int" >        2        7        7        9       10 </v>
   <v type="int" >        2        6        7        7       10 </v>
   <v type="int" >        2        5        6        6        9 </v>
   <v type="int" >        2        6        6        9       10 </v>
   <v type="int" >        2        6        9       10       10 </v>
   <v type="int" >        2        5        5        6        9 </v>
   <v type="int" >        2        5        6        9        9 </v>
   <v type="int" >        2        6        9        9       10 </v>
   <v type="int" >        2        2        3        3        5 </v>
   <v type="int" >        2        3        3        5        6 </v>
   <v type="int" >        2        3        5        6        6 </v>
   <v type="int" >        2        2        2        3        5 </v>
   <v type="int" >        2        2        3        5        5 </v>
   <v type="int" >        2        3        5        5        6 </v>
   <v type="int" >        2        2        6        6        7 </v>
   <v type="int" >        2        2        3        6        6 </v>
   <v type="int" >        2        2        3        3        6 </v>
   <v type="int" >        2        2        6        7        7 </v>
   <v type="int" >        2        2        2        6        7 </v>
   <v type="int" >        2        2        2        3        6 </v>
  </varray>
  <i name="volumeweight">      0.01041667 </i>
 </kpoints>
 <parameters>
  <separator name="general" >
   <i type="string" name="SYSTEM">ni3al</i>
   <i type="logical" name="LCOMPAT"> F  </i>
  </separator>
  <separator name="electronic" >
   <i type="string" name="PREC">accura</i>
   <i name="ENMAX">    450.00000000</i>
   <i name="ENAUG">    519.42400000</i>
   <i name="EDIFF">      0.00001000</i>
   <i type="int" name="IALGO">    38</i>
   <i type="int" name="IWAVPR">    10</i>
   <i type="int" name="NBANDS">   372</i>
   <i type="int" name="NBANDSLOW">    -1</i>
   <i type="int" name="NBANDSHIGH">    -1</i>
   <i name="NELECT">    566.00000000</i>
   <i type="int" name="TURBO">     0</i>
   <i type="int" name="IRESTART">     0</i>
   <i type="int" name="NREBOOT">     0</i>
   <i type="int" name="NMIN">     0</i>
   <i name="EREF">      0.00000000</i>
   <separator name="electronic smearing" >
    <i type="int" name="ISMEAR">    -5</i>
    <i name="SIGMA">      0.10000000</i>
    <i name="KSPACING">      0.50000000</i>
    <i type="logical" name="KGAMMA"> T  </i>
    <i type="logical" name="KBLOWUP"> T  </i>
   </separator>
   <separator name="electronic projectors" >
    <i type="logical" name="LREAL"> T  </i>
    <v name="ROPT">     -0.00025000     -0.00025000     -0.00025000</v>
    <i type="int" name="LMAXPAW">  -100</i>
    <i type="int" name="LMAXMIX">     4</i>
    <i type="logical" name="NLSPLINE"> F  </i>
   </separator>
   <separator name="electronic startup" >
    <i type="int" name="ISTART">     0</i>
    <i type="int" name="ICHARG">     2</i>
    <i type="int" name="INIWAV">     1</i>
   </separator>
   <separator name="electronic spin" >
    <i type="int" name="ISPIN">     2</i>
    <i type="logical" name="LNONCOLLINEAR"> F  </i>
    <v name="MAGMOM">      1.00000000      1.00000000      1.00000000      1.00000000      1.00000000      1.00000000      1.00000000      1.00000000      1.00000000      1.00000000      1.00000000      1.00000000      1.00000000      1.00000000      1.00000000      1.00000000      1.00000000      1.00000000      1.00000000      1.00000000
      1.00000000      1.00000000      1.00000000      1.00000000      1.00000000      1.00000000      1.00000000      1.00000000      1.00000000      1.00000000      1.00000000      1.00000000      1.00000000      1.00000000      1.00000000      1.00000000      1.00000000      1.00000000      1.00000000      1.00000000
      1.00000000      1.00000000      1.00000000      1.00000000      1.00000000      1.00000000      1.00000000      1.00000000      1.00000000      1.00000000      1.00000000      1.00000000      1.00000000      1.00000000      1.00000000      1.00000000      1.00000000      1.00000000      1.00000000      1.00000000
      1.00000000      1.00000000      1.00000000</v>
    <i name="NUPDOWN">     -1.00000000</i>
    <i type="logical" name="LSORBIT"> F  </i>
    <v name="SAXIS">      0.00000000      0.00000000      1.00000000</v>
    <i type="logical" name="LSPIRAL"> F  </i>
    <v name="QSPIRAL">      0.00000000      0.00000000      0.00000000</v>
    <i type="logical" name="LZEROZ"> F  </i>
   </separator>
   <separator name="electronic exchange-correlation" >
    <i type="logical" name="LASPH"> F  </i>
    <i type="logical" name="LMETAGGA"> F  </i>
   </separator>
   <separator name="electronic convergence" >
    <i type="int" name="NELM">   150</i>
    <i type="int" name="NELMDL">    -5</i>
    <i type="int" name="NELMIN">     2</i>
    <i name="ENINI">    450.00000000</i>
    <separator name="electronic convergence detail" >
     <i type="logical" name="LDIAG"> T  </i>
     <i type="logical" name="LSUBROT"> F  </i>
     <i name="WEIMIN">      0.00000000</i>
     <i name="EBREAK">      0.00000001</i>
     <i name="DEPER">      0.30000000</i>
     <i type="int" name="NRMM">     4</i>
     <i name="TIME">      0.40000000</i>
    </separator>
   </separator>
   <separator name="electronic mixer" >
    <i name="AMIX">      0.05000000</i>
    <i name="BMIX">      0.00010000</i>
    <i name="AMIN">      0.01000000</i>
    <i name="AMIX_MAG">      0.20000000</i>
    <i name="BMIX_MAG">      0.00010000</i>
    <separator name="electronic mixer details" >
     <i type="int" name="IMIX">     4</i>
     <i type="logical" name="MIXFIRST"> F  </i>
     <i type="int" name="MAXMIX">   -45</i>
     <i name="WC">    100.00000000</i>
     <i type="int" name="INIMIX">     1</i>
     <i type="int" name="MIXPRE">     1</i>
     <i type="int" name="MREMOVE">     5</i>
    </separator>
   </separator>
   <separator name="electronic dipolcorrection" >
    <i type="logical" name="LDIPOL"> T  </i>
    <i type="logical" name="LMONO"> F  </i>
    <i type="int" name="IDIPOL">     3</i>
    <i name="EPSILON">      1.00000000</i>
    <v name="DIPOL">   -100.00000000   -100.00000000   -100.00000000</v>
    <i name="EFIELD">      0.00000000</i>
   </separator>
  </separator>
  <separator name="grids" >
   <i type="int" name="NGX">    60</i>
   <i type="int" name="NGY">    60</i>
   <i type="int" name="NGZ">   168</i>
   <i type="int" name="NGXF">   120</i>
   <i type="int" name="NGYF">   120</i>
   <i type="int" name="NGZF">   336</i>
   <i type="logical" name="ADDGRID"> F  </i>
  </separator>
  <separator name="ionic" >
   <i type="int" name="NSW">     0</i>
   <i type="int" name="IBRION">    -1</i>
   <i type="int" name="MDALGO">     0</i>
   <i type="int" name="ISIF">     2</i>
   <i name="PSTRESS">      0.00000000</i>
   <i name="EDIFFG">      0.00010000</i>
   <i type="int" name="NFREE">     0</i>
   <i name="POTIM">      0.50000000</i>
   <i name="SMASS">     -3.00000000</i>
   <i name="SCALEE">      1.00000000</i>
  </separator>
  <separator name="ionic md" >
   <i name="TEBEG">      0.00010000</i>
   <i name="TEEND">      0.00010000</i>
   <i type="int" name="NBLOCK">     1</i>
   <i type="int" name="KBLOCK">     1</i>
   <i type="int" name="NPACO">   256</i>
   <i name="APACO">     10.00000000</i>
  </separator>
  <separator name="symmetry" >
   <i type="int" name="ISYM">     2</i>
   <i name="SYMPREC">      0.00001000</i>
  </separator>
  <separator name="dos" >
   <i type="int" name="LORBIT">     0</i>
   <v name="RWIGS">     -1.00000000     -1.00000000     -1.00000000</v>
   <i type="int" name="NEDOS">   301</i>
   <i name="EMIN">     10.00000000</i>
   <i name="EMAX">    -10.00000000</i>
   <i name="EFERMI">      0.00000000</i>
  </separator>
  <separator name="writing" >
   <i type="int" name="NWRITE">     2</i>
   <i type="logical" name="LWAVE"> T  </i>
   <i type="logical" name="LDOWNSAMPLE"> F  </i>
   <i type="logical" name="LCHARG"> T  </i>
   <i type="logical" name="LPARD"> F  </i>
   <i type="logical" name="LVTOT"> F  </i>
   <i type="logical" name="LVHAR"> F  </i>
   <i type="logical" name="LELF"> T  </i>
   <i type="logical" name="LOPTICS"> F  </i>
   <v name="STM">      0.00000000      0.00000000      0.00000000      0.00000000      0.00000000      0.00000000      0.00000000</v>
  </separator>
  <separator name="performance" >
   <i type="int" name="NPAR">     4</i>
   <i type="int" name="NSIM">     4</i>
   <i type="int" name="NBLK">    -1</i>
   <i type="logical" name="LPLANE"> T  </i>
   <i type="logical" name="LSCALAPACK"> T  </i>
   <i type="logical" name="LSCAAWARE"> F  </i>
   <i type="logical" name="LSCALU"> F  </i>
   <i type="logical" name="LASYNC"> F  </i>
   <i type="logical" name="LORBITALREAL"> F  </i>
  </separator>
  <separator name="miscellaneous" >
   <i type="int" name="IDIOT">     3</i>
   <i type="int" name="PHON_NSTRUCT">    -1</i>
   <i type="logical" name="LMUSIC"> F  </i>
   <v name="POMASS">     55.84700000     51.99600000    207.20000000</v>
   <v name="DARWINR">      0.00000000      0.00000000      0.00000000</v>
   <v name="DARWINV">      1.00000000      1.00000000      1.00000000</v>
   <i type="logical" name="LCORR"> T  </i>
  </separator>
  <i type="logical" name="GGA_COMPAT"> T  </i>
  <i type="logical" name="LBERRY"> F  </i>
  <i type="int" name="ICORELEVEL">     0</i>
  <i type="logical" name="LDAU"> F  </i>
  <i type="int" name="I_CONSTRAINED_M">     0</i>
  <separator name="electronic exchange-correlation" >
   <i type="string" name="GGA">--</i>
   <i type="int" name="VOSKOWN">     0</i>
   <i type="logical" name="LHFCALC"> F  </i>
   <i type="string" name="PRECFOCK"></i>
   <i type="logical" name="LSYMGRAD"> F  </i>
   <i type="logical" name="LHFONE"> F  </i>
   <i type="logical" name="LRHFCALC"> F  </i>
   <i type="logical" name="LTHOMAS"> F  </i>
   <i type="logical" name="LMODELHF"> F  </i>
   <i type="logical" name="LFOCKACE"> F  </i>
   <i name="ENCUT4O">     -1.00000000</i>
   <i type="int" name="EXXOEP">     0</i>
   <i type="int" name="FOURORBIT">     0</i>
   <i name="AEXX">      0.00000000</i>
   <i name="HFALPHA">      0.00000000</i>
   <i name="MCALPHA">      0.00000000</i>
   <i name="ALDAX">      1.00000000</i>
   <i name="AGGAX">      1.00000000</i>
   <i name="ALDAC">      1.00000000</i>
   <i name="AGGAC">      1.00000000</i>
   <i type="int" name="NKREDX">     1</i>
   <i type="int" name="NKREDY">     1</i>
   <i type="int" name="NKREDZ">     1</i>
   <i type="logical" name="SHIFTRED"> F  </i>
   <i type="logical" name="ODDONLY"> F  </i>
   <i type="logical" name="EVENONLY"> F  </i>
   <i type="int" name="LMAXFOCK">     0</i>
   <i type="int" name="NMAXFOCKAE">     0</i>
   <i type="logical" name="LFOCKAEDFT"> F  </i>
   <i name="HFSCREEN">      0.00000000</i>
   <i name="HFSCREENC">      0.00000000</i>
   <i type="int" name="NBANDSGWLOW">     0</i>
  </separator>
  <separator name="vdW DFT" >
   <i type="logical" name="LUSE_VDW"> F  </i>
   <i name="Zab_VDW">     -0.84910000</i>
   <i name="PARAM1">      0.12340000</i>
   <i name="PARAM2">      1.00000000</i>
   <i name="PARAM3">      0.00000000</i>
  </separator>
  <separator name="model GW" >
   <i type="int" name="MODEL_GW">     0</i>
   <i name="MODEL_EPS0">     16.29231243</i>
   <i name="MODEL_ALPHA">      1.00000000</i>
  </separator>
  <separator name="linear response parameters" >
   <i type="logical" name="LEPSILON"> F  </i>
   <i type="logical" name="LRPA"> F  </i>
   <i type="logical" name="LNABLA"> F  </i>
   <i type="logical" name="LVEL"> F  </i>
   <i name="CSHIFT">      0.10000000</i>
   <i name="OMEGAMAX">     -1.00000000</i>
   <i name="DEG_THRESHOLD">      0.00200000</i>
   <i name="RTIME">     -0.10000000</i>
   <i name="WPLASMAI">      0.00000000</i>
   <v name="DFIELD">      0.00000000      0.00000000      0.00000000</v>
   <v name="WPLASMA">      0.00000000      0.00000000      0.00000000      0.00000000      0.00000000      0.00000000      0.00000000      0.00000000      0.00000000</v>
  </separator>
  <separator name="orbital magnetization" >
   <i type="logical" name="NUCIND"> F  </i>
   <v name="MAGPOS">      0.00000000      0.00000000      0.00000000</v>
   <i type="logical" name="LNICSALL"> T  </i>
   <i type="logical" name="ORBITALMAG"> F  </i>
   <i type="logical" name="LMAGBLOCH"> F  </i>
   <i type="logical" name="LCHIMAG"> F  </i>
   <i type="logical" name="LGAUGE"> T  </i>
   <i type="int" name="MAGATOM">     0</i>
   <v name="MAGDIPOL">      0.00000000      0.00000000      0.00000000</v>
   <v name="AVECCONST">      0.00000000      0.00000000      0.00000000</v>
  </separator>
  <separator name="response functions" >
   <i type="logical" name="LFINITE_TEMPERATURE"> F  </i>
   <i type="logical" name="LADDER"> F  </i>
   <i type="logical" name="LRPAFORCE"> F  </i>
   <i type="logical" name="LFXC"> F  </i>
   <i type="logical" name="LHARTREE"> T  </i>
   <i type="int" name="IBSE">     0</i>
   <v type="int" name="KPOINT">    -1     0     0     0</v>
   <i type="logical" name="LTCTC"> F  </i>
   <i type="logical" name="LTCTE"> F  </i>
   <i type="logical" name="LTETE"> F  </i>
   <i type="logical" name="LTRIPLET"> F  </i>
   <i type="logical" name="LFXCEPS"> F  </i>
   <i type="logical" name="LFXHEG"> F  </i>
   <i type="int" name="NATURALO">     2</i>
   <i type="logical" name="LHOLEGF"> F  </i>
   <i type="logical" name="L2ORDER"> F  </i>
   <i type="logical" name="LDMP1"> F  </i>
   <i type="logical" name="LMP2LT"> F  </i>
   <i type="logical" name="LSMP2LT"> F  </i>
   <i type="logical" name="LGWLF"> F  </i>
   <i name="ENCUTGW">     -2.00000000</i>
   <i name="ENCUTGWSOFT">     -2.00000000</i>
   <i name="ENCUTLF">     -1.00000000</i>
   <i type="logical" name="LESF_SPLINES"> F  </i>
   <i type="int" name="LMAXMP2">    -1</i>
   <i name="SCISSOR">      0.00000000</i>
   <i type="int" name="NOMEGA">     0</i>
   <i type="int" name="NOMEGAR">     0</i>
   <i type="int" name="NBANDSGW">    -1</i>
   <i type="int" name="NBANDSO">    -1</i>
   <i type="int" name="NBANDSV">    -1</i>
   <i type="int" name="NELMGW">     1</i>
   <i type="int" name="NELMHF">     1</i>
   <i type="int" name="DIM">     3</i>
   <i type="int" name="IESPILON">     4</i>
   <i type="int" name="ANTIRES">     0</i>
   <i name="OMEGAMAX">    -30.00000000</i>
   <i name="OMEGAMIN">    -30.00000000</i>
   <i name="OMEGATL">   -200.00000000</i>
   <i type="int" name="OMEGAGRID">     0</i>
   <i name="CSHIFT">     -0.10000000</i>
   <i type="logical" name="LSELFENERGY"> F  </i>
   <i type="logical" name="LSPECTRAL"> F  </i>
   <i type="logical" name="LSPECTRALGW"> F  </i>
   <i type="logical" name="LSINGLES"> F  </i>
   <i type="logical" name="LFERMIGW"> F  </i>
   <i type="logical" name="ODDONLYGW"> F  </i>
   <i type="logical" name="EVENONLYGW"> F  </i>
   <i type="int" name="NKREDLFX">     1</i>
   <i type="int" name="NKREDLFY">     1</i>
   <i type="int" name="NKREDLFZ">     1</i>
   <i type="int" name="MAXMEM">  2800</i>
   <i type="int" name="TELESCOPE">     0</i>
   <i type="int" name="NTAUPAR">    -1</i>
   <i type="int" name="NOMEGAPAR">    -1</i>
   <i name="DAMP_NEWTON">      0.80000001</i>
   <i name="LAMBDA">      1.00000000</i>
  </separator>
  <separator name="External order field" >
   <i name="OFIELD_KAPPA">      0.00000000</i>
   <v name="OFIELD_K">      0.00000000      0.00000000      0.00000000</v>
   <i name="OFIELD_Q6_NEAR">      0.00000000</i>
   <i name="OFIELD_Q6_FAR">      0.00000000</i>
   <i name="OFIELD_A">      0.00000000</i>
  </separator>
  <separator name="optional k-points parameters" >
   <i type="int" name="KPOINTS_OPT_MODE">     1</i>
   <i type="logical" name="LKPOINTS_OPT"> F  </i>
  </separator>
  <separator name="solvation model" >
   <i type="logical" name="LSOL"> F  </i>
  </separator>
 </parameters>
 <atominfo>
  <atoms>      63 </atoms>
  <types>       3 </types>
  <array name="atoms" >
   <dimension dim="1">ion</dimension>
   <field type="string">element</field>
   <field type="int">atomtype</field>
   <set>
    <rc><c>Fe</c><c>   1</c></rc>
    <rc><c>Fe</c><c>   1</c></rc>
    <rc><c>Fe</c><c>   1</c></rc>
    <rc><c>Fe</c><c>   1</c></rc>
    <rc><c>Fe</c><c>   1</c></rc>
    <rc><c>Fe</c><c>   1</c></rc>
    <rc><c>Fe</c><c>   1</c></rc>
    <rc><c>Fe</c><c>   1</c></rc>
    <rc><c>Fe</c><c>   1</c></rc>
    <rc><c>Fe</c><c>   1</c></rc>
    <rc><c>Fe</c><c>   1</c></rc>
    <rc><c>Fe</c><c>   1</c></rc>
    <rc><c>Fe</c><c>   1</c></rc>
    <rc><c>Fe</c><c>   1</c></rc>
    <rc><c>Fe</c><c>   1</c></rc>
    <rc><c>Fe</c><c>   1</c></rc>
    <rc><c>Fe</c><c>   1</c></rc>
    <rc><c>Fe</c><c>   1</c></rc>
    <rc><c>Fe</c><c>   1</c></rc>
    <rc><c>Fe</c><c>   1</c></rc>
    <rc><c>Fe</c><c>   1</c></rc>
    <rc><c>Fe</c><c>   1</c></rc>
    <rc><c>Fe</c><c>   1</c></rc>
    <rc><c>Fe</c><c>   1</c></rc>
    <rc><c>Fe</c><c>   1</c></rc>
    <rc><c>Fe</c><c>   1</c></rc>
    <rc><c>Fe</c><c>   1</c></rc>
    <rc><c>Fe</c><c>   1</c></rc>
    <rc><c>Fe</c><c>   1</c></rc>
    <rc><c>Fe</c><c>   1</c></rc>
    <rc><c>Fe</c><c>   1</c></rc>
    <rc><c>Fe</c><c>   1</c></rc>
    <rc><c>Fe</c><c>   1</c></rc>
    <rc><c>Fe</c><c>   1</c></rc>
    <rc><c>Fe</c><c>   1</c></rc>
    <rc><c>Fe</c><c>   1</c></rc>
    <rc><c>Fe</c><c>   1</c></rc>
    <rc><c>Fe</c><c>   1</c></rc>
    <rc><c>Fe</c><c>   1</c></rc>
    <rc><c>Fe</c><c>   1</c></rc>
    <rc><c>Fe</c><c>   1</c></rc>
    <rc><c>Fe</c><c>   1</c></rc>
    <rc><c>Fe</c><c>   1</c></rc>
    <rc><c>Fe</c><c>   1</c></rc>
    <rc><c>Fe</c><c>   1</c></rc>
    <rc><c>Fe</c><c>   1</c></rc>
    <rc><c>Fe</c><c>   1</c></rc>
    <rc><c>Fe</c><c>   1</c></rc>
    <rc><c>Cr</c><c>   2</c></rc>
    <rc><c>Cr</c><c>   2</c></rc>
    <rc><c>Cr</c><c>   2</c></rc>
    <rc><c>Cr</c><c>   2</c></rc>
    <rc><c>Cr</c><c>   2</c></rc>
    <rc><c>Cr</c><c>   2</c></rc>
    <rc><c>Cr</c><c>   2</c></rc>
    <rc><c>Cr</c><c>   2</c></rc>
    <rc><c>Cr</c><c>   2</c></rc>
    <rc><c>Cr</c><c>   2</c></rc>
    <rc><c>Cr</c><c>   2</c></rc>
    <rc><c>Cr</c><c>   2</c></rc>
    <rc><c>Cr</c><c>   2</c></rc>
    <rc><c>Cr</c><c>   2</c></rc>
    <rc><c>Pb</c><c>   3</c></rc>
   </set>
  </array>
  <array name="atomtypes" >
   <dimension dim="1">type</dimension>
   <field type="int">atomspertype</field>
   <field type="string">element</field>
   <field>mass</field>
   <field>valence</field>
   <field type="string">pseudopotential</field>
   <set>
    <rc><c>  48</c><c>Fe</c><c>     55.84700000</c><c>      8.00000000</c><c>  PAW_PBE Fe 06Sep2000                  </c></rc>
    <rc><c>  14</c><c>Cr</c><c>     51.99600000</c><c>     12.00000000</c><c>  PAW_PBE Cr_pv 02Aug2007               </c></rc>
    <rc><c>   1</c><c>Pb</c><c>    207.20000000</c><c>     14.00000000</c><c>  PAW_PBE Pb_d 06Sep2000                </c></rc>
   </set>
  </array>
 </atominfo>
 <structure name="initialpos" >
  <crystal>
   <varray name="basis" >
    <v>       8.53269958       0.00000000       0.00000000 </v>
    <v>      -0.00051933       8.49699972       0.00000000 </v>
    <v>       0.00000000       0.00000000      23.59499931 </v>
   </varray>
   <i name="volume">   1710.69280467 </i>
   <varray name="rec_basis" >
    <v>       0.11719620       0.00000716       0.00000000 </v>
    <v>       0.00000000       0.11768860       0.00000000 </v>
    <v>       0.00000000       0.00000000       0.04238186 </v>
   </varray>
  </crystal>
  <varray name="positions" >
   <v>       0.00086000       0.99993000       0.24271000 </v>
   <v>       0.16437447       0.16799707       0.30311398 </v>
   <v>       0.49939323       0.16235766       0.30056017 </v>
   <v>       0.66822000       0.00107000       0.24272000 </v>
   <v>       0.83475155       0.16734451       0.30224043 </v>
   <v>       0.00044000       0.33497000       0.24240000 </v>
   <v>       0.16842448       0.50179797       0.30397618 </v>
   <v>       0.33469000       0.33305000       0.24267000 </v>
   <v>       0.49985389       0.50530510       0.30177478 </v>
   <v>       0.83399883       0.50065338       0.30159637 </v>
   <v>       0.16876293       0.83290627       0.30441664 </v>
   <v>       0.33342000       0.66555000       0.24261000 </v>
   <v>       0.83611603       0.83268947       0.30235251 </v>
   <v>       0.00064000       0.00119000       0.00199000 </v>
   <v>       0.00106707       0.00267859       0.36022628 </v>
   <v>       0.16843000       0.16962000       0.06269000 </v>
   <v>       0.33460000       0.00297000       0.00254000 </v>
   <v>       0.33202674       0.01155532       0.36260148 </v>
   <v>       0.50463000       0.16850000       0.06120000 </v>
   <v>       0.83272000       0.16670000       0.06193000 </v>
   <v>       0.00004000       0.33467000       0.00213000 </v>
   <v>       0.00222373       0.33643840       0.36031532 </v>
   <v>       0.16757000       0.49895000       0.06268000 </v>
   <v>       0.50099000       0.49896000       0.06206000 </v>
   <v>       0.83393000       0.50234000       0.06235000 </v>
   <v>       0.00121000       0.66785000       0.00188000 </v>
   <v>       0.99493737       0.66397820       0.36129385 </v>
   <v>       0.16792000       0.83462000       0.06228000 </v>
   <v>       0.33437000       0.66664000       0.00225000 </v>
   <v>       0.50152000       0.83563000       0.06217000 </v>
   <v>       0.66753000       0.66705000       0.00175000 </v>
   <v>       0.66908296       0.66613945       0.35902760 </v>
   <v>       0.83293000       0.83584000       0.06235000 </v>
   <v>       0.00121000       0.00098000       0.12225000 </v>
   <v>       0.16700000       0.16811000       0.18239000 </v>
   <v>       0.33470000       0.00227000       0.12192000 </v>
   <v>       0.50174000       0.16716000       0.18263000 </v>
   <v>       0.83421000       0.16639000       0.18283000 </v>
   <v>       0.16964000       0.49868000       0.18209000 </v>
   <v>       0.50219000       0.50081000       0.18317000 </v>
   <v>       0.66741000       0.33395000       0.12233000 </v>
   <v>       0.83134000       0.50253000       0.18283000 </v>
   <v>       0.00132000       0.66795000       0.12253000 </v>
   <v>       0.16898000       0.83509000       0.18243000 </v>
   <v>       0.33446000       0.66703000       0.12223000 </v>
   <v>       0.49971000       0.83538000       0.18278000 </v>
   <v>       0.66698000       0.66840000       0.12259000 </v>
   <v>       0.83488000       0.83403000       0.18294000 </v>
   <v>       0.33558000       0.99863000       0.24353000 </v>
   <v>       0.66801000       0.33262000       0.24229000 </v>
   <v>       0.00448000       0.66739000       0.24217000 </v>
   <v>       0.49786758       0.83627137       0.30245981 </v>
   <v>       0.66521000       0.67351000       0.24327000 </v>
   <v>       0.66620000       0.99680000       0.00000000 </v>
   <v>       0.65715550       0.99889406       0.36399298 </v>
   <v>       0.33213000       0.33386000       0.00135000 </v>
   <v>       0.33941913       0.32014515       0.36420188 </v>
   <v>       0.67040000       0.33673000       0.00321000 </v>
   <v>       0.65816747       0.33138650       0.36678086 </v>
   <v>       0.66728000       0.99998000       0.12246000 </v>
   <v>       0.99806000       0.33495000       0.12235000 </v>
   <v>       0.33675000       0.33238000       0.12261000 </v>
   <v>       0.33433153       0.67061631       0.39603825 </v>
  </varray>
  <varray name="selective"  type="logical" >
   <v type="logical" >  F  F  F </v>
   <v type="logical" >  T  T  T </v>
   <v type="logical" >  T  T  T </v>
   <v type="logical" >  F  F  F </v>
   <v type="logical" >  T  T  T </v>
   <v type="logical" >  F  F  F </v>
   <v type="logical" >  T  T  T </v>
   <v type="logical" >  F  F  F </v>
   <v type="logical" >  T  T  T </v>
   <v type="logical" >  T  T  T </v>
   <v type="logical" >  T  T  T </v>
   <v type="logical" >  F  F  F </v>
   <v type="logical" >  T  T  T </v>
   <v type="logical" >  F  F  F </v>
   <v type="logical" >  T  T  T </v>
   <v type="logical" >  F  F  F </v>
   <v type="logical" >  F  F  F </v>
   <v type="logical" >  T  T  T </v>
   <v type="logical" >  F  F  F </v>
   <v type="logical" >  F  F  F </v>
   <v type="logical" >  F  F  F </v>
   <v type="logical" >  T  T  T </v>
   <v type="logical" >  F  F  F </v>
   <v type="logical" >  F  F  F </v>
   <v type="logical" >  F  F  F </v>
   <v type="logical" >  F  F  F </v>
   <v type="logical" >  T  T  T </v>
   <v type="logical" >  F  F  F </v>
   <v type="logical" >  F  F  F </v>
   <v type="logical" >  F  F  F </v>
   <v type="logical" >  F  F  F </v>
   <v type="logical" >  T  T  T </v>
   <v type="logical" >  F  F  F </v>
   <v type="logical" >  F  F  F </v>
   <v type="logical" >  F  F  F </v>
   <v type="logical" >  F  F  F </v>
   <v type="logical" >  F  F  F </v>
   <v type="logical" >  F  F  F </v>
   <v type="logical" >  F  F  F </v>
   <v type="logical" >  F  F  F </v>
   <v type="logical" >  F  F  F </v>
   <v type="logical" >  F  F  F </v>
   <v type="logical" >  F  F  F </v>
   <v type="logical" >  F  F  F </v>
   <v type="logical" >  F  F  F </v>
   <v type="logical" >  F  F  F </v>
   <v type="logical" >  F  F  F </v>
   <v type="logical" >  F  F  F </v>
   <v type="logical" >  F  F  F </v>
   <v type="logical" >  F  F  F </v>
   <v type="logical" >  F  F  F </v>
   <v type="logical" >  T  T  T </v>
   <v type="logical" >  F  F  F </v>
   <v type="logical" >  F  F  F </v>
   <v type="logical" >  T  T  T </v>
   <v type="logical" >  F  F  F </v>
   <v type="logical" >  T  T  T </v>
   <v type="logical" >  F  F  F </v>
   <v type="logical" >  T  T  T </v>
   <v type="logical" >  F  F  F </v>
   <v type="logical" >  F  F  F </v>
   <v type="logical" >  F  F  F </v>
   <v type="logical" >  T  T  T </v>
  </varray>
  <nose>
   <v>      -3.00000000       0.00000000       0.00010000       0.00010000 </v>
  </nose>
 </structure>
 <calculation>
  <scstep>
   <time name="dav">  194.68   27.89</time>
   <time name="total">  203.40   29.63</time>
   <dipole>
    <v name="dipole">      0.00000000       0.00000000       0.00001114 </v>
    <i name="Tr[quadrupol]">  -7088.52213900 </i>
    <i name="Echarged">      0.00000000 </i>
    <i name="Edipol_quadrupol">      0.00000000 </i>
    <i name="Eion">      0.00000000 </i>
   </dipole>
   <energy>
    <i name="alphaZ">   1814.29861831 </i>
    <i name="ewald"> 211611.40719319 </i>
    <i name="hartreedc">-262797.66768916 </i>
    <i name="XCdc">    995.12982630 </i>
    <i name="pawpsdc">  46365.14764523 </i>
    <i name="pawaedc"> -47395.88140329 </i>
    <i name="eentropy">      0.00000000 </i>
    <i name="bandstr">   1764.32716834 </i>
    <i name="atom">  53259.27193834 </i>
    <i name="e_fr_energy">   5616.03329726 </i>
    <i name="e_wo_entrp">   5616.03329726 </i>
    <i name="e_0_energy">   5616.03329726 </i>
   </energy>
  </scstep>
  <scstep>
   <time name="dav">  186.26   26.72</time>
   <time name="total">  186.78   26.80</time>
   <dipole>
    <v name="dipole">      0.00000000       0.00000000       0.00001114 </v>
    <i name="Tr[quadrupol]">  -7088.52213900 </i>
    <i name="Echarged">      0.00000000 </i>
    <i name="Edipol_quadrupol">      0.00000000 </i>
    <i name="Eion">      0.00000000 </i>
   </dipole>
   <energy>
    <i name="e_fr_energy">    -63.70091356 </i>
    <i name="e_wo_entrp">    -63.70091356 </i>
    <i name="e_0_energy">    -63.70091356 </i>
   </energy>
  </scstep>
  <scstep>
   <time name="dav">  189.23   27.10</time>
   <time name="total">  189.76   27.18</time>
   <dipole>
    <v name="dipole">      0.00000000       0.00000000       0.00001114 </v>
    <i name="Tr[quadrupol]">  -7088.52213900 </i>
    <i name="Echarged">      0.00000000 </i>
    <i name="Edipol_quadrupol">      0.00000000 </i>
    <i name="Eion">      0.00000000 </i>
   </dipole>
   <energy>
    <i name="e_fr_energy">   -523.50552228 </i>
    <i name="e_wo_entrp">   -523.50552228 </i>
    <i name="e_0_energy">   -523.50552228 </i>
   </energy>
  </scstep>
  <scstep>
   <time name="dav">  291.45   41.76</time>
   <time name="total">  292.04   41.85</time>
   <dipole>
    <v name="dipole">      0.00000000       0.00000000       0.00001114 </v>
    <i name="Tr[quadrupol]">  -7088.52213900 </i>
    <i name="Echarged">      0.00000000 </i>
    <i name="Edipol_quadrupol">      0.00000000 </i>
    <i name="Eion">      0.00000000 </i>
   </dipole>
   <energy>
    <i name="e_fr_energy">   -581.48683341 </i>
    <i name="e_wo_entrp">   -581.48683341 </i>
    <i name="e_0_energy">   -581.48683341 </i>
   </energy>
  </scstep>
  <scstep>
   <time name="dav">  275.84   39.52</time>
   <time name="total">  278.21   40.08</time>
   <dipole>
    <v name="dipole">      0.00000000       0.00000000       0.00001114 </v>
    <i name="Tr[quadrupol]">  -7088.52213900 </i>
    <i name="Echarged">      0.00000000 </i>
    <i name="Edipol_quadrupol">      0.00000000 </i>
    <i name="Eion">      0.00000000 </i>
   </dipole>
   <energy>
    <i name="e_fr_energy">   -584.72414208 </i>
    <i name="e_wo_entrp">   -584.72414208 </i>
    <i name="e_0_energy">   -584.72414208 </i>
   </energy>
  </scstep>
  <scstep>
   <time name="dav">  300.12   43.07</time>
   <time name="total">  310.14   45.17</time>
   <dipole>
    <v name="dipole">      0.00000000       0.00000000       1.25159708 </v>
    <i name="Tr[quadrupol]">  -7112.28898672 </i>
    <i name="Echarged">      0.00000000 </i>
    <i name="Edipol_quadrupol">      0.00000000 </i>
    <i name="Eion">      0.00000000 </i>
   </dipole>
   <energy>
    <i name="e_fr_energy">   -709.69094365 </i>
    <i name="e_wo_entrp">   -709.69094365 </i>
    <i name="e_0_energy">   -709.69094365 </i>
   </energy>
  </scstep>
  <scstep>
   <time name="dav">  307.21   44.08</time>
   <time name="total">  317.12   46.17</time>
   <dipole>
    <v name="dipole">      0.00000000       0.00000000      -1.55470708 </v>
    <i name="Tr[quadrupol]">  -7099.83516558 </i>
    <i name="Echarged">      0.00000000 </i>
    <i name="Edipol_quadrupol">      0.00000000 </i>
    <i name="Eion">      0.00000000 </i>
   </dipole>
   <energy>
    <i name="e_fr_energy">   -675.57928349 </i>
    <i name="e_wo_entrp">   -675.57928349 </i>
    <i name="e_0_energy">   -675.57928349 </i>
   </energy>
  </scstep>
  <scstep>
   <time name="dav">  301.68   43.27</time>
   <time name="total">  311.69   45.37</time>
   <dipole>
    <v name="dipole">      0.00000000       0.00000000       0.53340055 </v>
    <i name="Tr[quadrupol]">  -7098.20111022 </i>
    <i name="Echarged">      0.00000000 </i>
    <i name="Edipol_quadrupol">      0.00000000 </i>
    <i name="Eion">      0.00000000 </i>
   </dipole>
   <energy>
    <i name="e_fr_energy">   -553.92288422 </i>
    <i name="e_wo_entrp">   -553.92288422 </i>
    <i name="e_0_energy">   -553.92288422 </i>
   </energy>
  </scstep>
  <scstep>
   <time name="dav">  285.42   40.97</time>
   <time name="total">  295.28   43.06</time>
   <dipole>
    <v name="dipole">      0.00000000       0.00000000      -0.05678157 </v>
    <i name="Tr[quadrupol]">  -7097.62343901 </i>
    <i name="Echarged">      0.00000000 </i>
    <i name="Edipol_quadrupol">      0.00000000 </i>
    <i name="Eion">      0.00000000 </i>
   </dipole>
   <energy>
    <i name="e_fr_energy">   -531.70431211 </i>
    <i name="e_wo_entrp">   -531.70431211 </i>
    <i name="e_0_energy">   -531.70431211 </i>
   </energy>
  </scstep>
  <scstep>
   <time name="dav">  275.50   39.48</time>
   <time name="total">  285.47   41.57</time>
   <dipole>
    <v name="dipole">      0.00000000       0.00000000       0.14125210 </v>
    <i name="Tr[quadrupol]">  -7098.30497194 </i>
    <i name="Echarged">      0.00000000 </i>
    <i name="Edipol_quadrupol">      0.00000000 </i>
    <i name="Eion">      0.00000000 </i>
   </dipole>
   <energy>
    <i name="e_fr_energy">   -515.50092582 </i>
    <i name="e_wo_entrp">   -515.50092582 </i>
    <i name="e_0_energy">   -515.50092582 </i>
   </energy>
  </scstep>
  <scstep>
   <time name="dav">  245.83   35.26</time>
   <time name="total">  255.87   37.37</time>
   <dipole>
    <v name="dipole">      0.00000000       0.00000000      -0.02421251 </v>
    <i name="Tr[quadrupol]">  -7103.99705128 </i>
    <i name="Echarged">      0.00000000 </i>
    <i name="Edipol_quadrupol">      0.00000000 </i>
    <i name="Eion">      0.00000000 </i>
   </dipole>
   <energy>
    <i name="e_fr_energy">   -498.42920776 </i>
    <i name="e_wo_entrp">   -498.42920776 </i>
    <i name="e_0_energy">   -498.42920776 </i>
   </energy>
  </scstep>
  <scstep>
   <time name="dav">  243.44   34.96</time>
   <time name="total">  253.48   37.07</time>
   <dipole>
    <v name="dipole">      0.00000000       0.00000000       0.01424406 </v>
    <i name="Tr[quadrupol]">  -7109.68879136 </i>
    <i name="Echarged">      0.00000000 </i>
    <i name="Edipol_quadrupol">      0.00000000 </i>
    <i name="Eion">      0.00000000 </i>
   </dipole>
   <energy>
    <i name="e_fr_energy">   -493.53043077 </i>
    <i name="e_wo_entrp">   -493.53043077 </i>
    <i name="e_0_energy">   -493.53043077 </i>
   </energy>
  </scstep>
  <scstep>
   <time name="dav">  244.64   35.10</time>
   <time name="total">  254.56   37.20</time>
   <dipole>
    <v name="dipole">      0.00000000       0.00000000       0.06520634 </v>
    <i name="Tr[quadrupol]">  -7110.66697477 </i>
    <i name="Echarged">      0.00000000 </i>
    <i name="Edipol_quadrupol">      0.00000000 </i>
    <i name="Eion">      0.00000000 </i>
   </dipole>
   <energy>
    <i name="e_fr_energy">   -493.89593019 </i>
    <i name="e_wo_entrp">   -493.89593019 </i>
    <i name="e_0_energy">   -493.89593019 </i>
   </energy>
  </scstep>
  <scstep>
   <time name="dav">  256.17   36.75</time>
   <time name="total">  266.12   38.85</time>
   <dipole>
    <v name="dipole">      0.00000000       0.00000000       0.07628463 </v>
    <i name="Tr[quadrupol]">  -7110.48263945 </i>
    <i name="Echarged">      0.00000000 </i>
    <i name="Edipol_quadrupol">      0.00000000 </i>
    <i name="Eion">      0.00000000 </i>
   </dipole>
   <energy>
    <i name="e_fr_energy">   -493.82826332 </i>
    <i name="e_wo_entrp">   -493.82826332 </i>
    <i name="e_0_energy">   -493.82826332 </i>
   </energy>
  </scstep>
  <scstep>
   <time name="dav">  300.09   43.10</time>
   <time name="total">  310.24   45.22</time>
   <dipole>
    <v name="dipole">      0.00000000       0.00000000       0.14884158 </v>
    <i name="Tr[quadrupol]">  -7111.22237500 </i>
    <i name="Echarged">      0.00000000 </i>
    <i name="Edipol_quadrupol">      0.00000000 </i>
    <i name="Eion">      0.00000000 </i>
   </dipole>
   <energy>
    <i name="e_fr_energy">   -495.28296869 </i>
    <i name="e_wo_entrp">   -495.28296869 </i>
    <i name="e_0_energy">   -495.28296869 </i>
   </energy>
  </scstep>
  <scstep>
   <time name="dav">  292.41   42.06</time>
   <time name="total">  302.50   44.17</time>
   <dipole>
    <v name="dipole">      0.00000000       0.00000000       0.03546280 </v>
    <i name="Tr[quadrupol]">  -7113.67354418 </i>
    <i name="Echarged">      0.00000000 </i>
    <i name="Edipol_quadrupol">      0.00000000 </i>
    <i name="Eion">      0.00000000 </i>
   </dipole>
   <energy>
    <i name="e_fr_energy">   -497.10503560 </i>
    <i name="e_wo_entrp">   -497.10503560 </i>
    <i name="e_0_energy">   -497.10503560 </i>
   </energy>
  </scstep>
  <scstep>
   <time name="dav">  274.23   39.39</time>
   <time name="total">  284.31   41.51</time>
   <dipole>
    <v name="dipole">      0.00000000       0.00000000       0.09637003 </v>
    <i name="Tr[quadrupol]">  -7117.81988317 </i>
    <i name="Echarged">      0.00000000 </i>
    <i name="Edipol_quadrupol">      0.00000000 </i>
    <i name="Eion">      0.00000000 </i>
   </dipole>
   <energy>
    <i name="e_fr_energy">   -500.31687917 </i>
    <i name="e_wo_entrp">   -500.31687917 </i>
    <i name="e_0_energy">   -500.31687917 </i>
   </energy>
  </scstep>
  <scstep>
   <time name="dav">  280.19   40.15</time>
   <time name="total">  290.19   42.26</time>
   <dipole>
    <v name="dipole">      0.00000000       0.00000000       0.02690081 </v>
    <i name="Tr[quadrupol]">  -7119.53712281 </i>
    <i name="Echarged">      0.00000000 </i>
    <i name="Edipol_quadrupol">      0.00000000 </i>
    <i name="Eion">      0.00000000 </i>
   </dipole>
   <energy>
    <i name="e_fr_energy">   -501.83560452 </i>
    <i name="e_wo_entrp">   -501.83560452 </i>
    <i name="e_0_energy">   -501.83560452 </i>
   </energy>
  </scstep>
  <scstep>
   <time name="dav">  265.29   38.00</time>
   <time name="total">  275.55   40.13</time>
   <dipole>
    <v name="dipole">      0.00000000       0.00000000       0.04072117 </v>
    <i name="Tr[quadrupol]">  -7120.07429391 </i>
    <i name="Echarged">      0.00000000 </i>
    <i name="Edipol_quadrupol">      0.00000000 </i>
    <i name="Eion">      0.00000000 </i>
   </dipole>
   <energy>
    <i name="e_fr_energy">   -502.61225079 </i>
    <i name="e_wo_entrp">   -502.61225079 </i>
    <i name="e_0_energy">   -502.61225079 </i>
   </energy>
  </scstep>
  <scstep>
   <time name="dav">  275.11   39.41</time>
   <time name="total">  285.17   41.52</time>
   <dipole>
    <v name="dipole">      0.00000000       0.00000000       0.02357807 </v>
    <i name="Tr[quadrupol]">  -7120.14986722 </i>
    <i name="Echarged">      0.00000000 </i>
    <i name="Edipol_quadrupol">      0.00000000 </i>
    <i name="Eion">      0.00000000 </i>
   </dipole>
   <energy>
    <i name="e_fr_energy">   -502.82691099 </i>
    <i name="e_wo_entrp">   -502.82691099 </i>
    <i name="e_0_energy">   -502.82691099 </i>
   </energy>
  </scstep>
  <scstep>
   <time name="dav">  289.86   41.53</time>
   <time name="total">  300.10   43.66</time>
   <dipole>
    <v name="dipole">      0.00000000       0.00000000       0.04338608 </v>
    <i name="Tr[quadrupol]">  -7119.42119696 </i>
    <i name="Echarged">      0.00000000 </i>
    <i name="Edipol_quadrupol">      0.00000000 </i>
    <i name="Eion">      0.00000000 </i>
   </dipole>
   <energy>
    <i name="e_fr_energy">   -503.00806513 </i>
    <i name="e_wo_entrp">   -503.00806513 </i>
    <i name="e_0_energy">   -503.00806513 </i>
   </energy>
  </scstep>
  <scstep>
   <time name="dav">  286.62   41.07</time>
   <time name="total">  296.77   43.20</time>
   <dipole>
    <v name="dipole">      0.00000000       0.00000000       0.04858701 </v>
    <i name="Tr[quadrupol]">  -7118.68848001 </i>
    <i name="Echarged">      0.00000000 </i>
    <i name="Edipol_quadrupol">      0.00000000 </i>
    <i name="Eion">      0.00000000 </i>
   </dipole>
   <energy>
    <i name="e_fr_energy">   -503.40885419 </i>
    <i name="e_wo_entrp">   -503.40885419 </i>
    <i name="e_0_energy">   -503.40885419 </i>
   </energy>
  </scstep>
  <scstep>
   <time name="dav">  287.92   41.25</time>
   <time name="total">  298.12   43.37</time>
   <dipole>
    <v name="dipole">      0.00000000       0.00000000       0.05356078 </v>
    <i name="Tr[quadrupol]">  -7118.85587120 </i>
    <i name="Echarged">      0.00000000 </i>
    <i name="Edipol_quadrupol">      0.00000000 </i>
    <i name="Eion">      0.00000000 </i>
   </dipole>
   <energy>
    <i name="e_fr_energy">   -503.73739148 </i>
    <i name="e_wo_entrp">   -503.73739148 </i>
    <i name="e_0_energy">   -503.73739148 </i>
   </energy>
  </scstep>
  <scstep>
   <time name="dav">  281.27   40.28</time>
   <time name="total">  291.44   42.40</time>
   <dipole>
    <v name="dipole">      0.00000000       0.00000000       0.06999757 </v>
    <i name="Tr[quadrupol]">  -7118.97521546 </i>
    <i name="Echarged">      0.00000000 </i>
    <i name="Edipol_quadrupol">      0.00000000 </i>
    <i name="Eion">      0.00000000 </i>
   </dipole>
   <energy>
    <i name="e_fr_energy">   -503.97167408 </i>
    <i name="e_wo_entrp">   -503.97167408 </i>
    <i name="e_0_energy">   -503.97167408 </i>
   </energy>
  </scstep>
  <scstep>
   <time name="dav">  298.79   42.79</time>
   <time name="total">  309.02   44.92</time>
   <dipole>
    <v name="dipole">      0.00000000       0.00000000       0.05135363 </v>
    <i name="Tr[quadrupol]">  -7119.24620199 </i>
    <i name="Echarged">      0.00000000 </i>
    <i name="Edipol_quadrupol">      0.00000000 </i>
    <i name="Eion">      0.00000000 </i>
   </dipole>
   <energy>
    <i name="e_fr_energy">   -504.46419439 </i>
    <i name="e_wo_entrp">   -504.46419439 </i>
    <i name="e_0_energy">   -504.46419439 </i>
   </energy>
  </scstep>
  <scstep>
   <time name="dav">  285.76   40.94</time>
   <time name="total">  295.96   43.07</time>
   <dipole>
    <v name="dipole">      0.00000000       0.00000000       0.03431565 </v>
    <i name="Tr[quadrupol]">  -7119.12689543 </i>
    <i name="Echarged">      0.00000000 </i>
    <i name="Edipol_quadrupol">      0.00000000 </i>
    <i name="Eion">      0.00000000 </i>
   </dipole>
   <energy>
    <i name="e_fr_energy">   -504.83994321 </i>
    <i name="e_wo_entrp">   -504.83994321 </i>
    <i name="e_0_energy">   -504.83994321 </i>
   </energy>
  </scstep>
  <scstep>
   <time name="dav">  284.17   40.71</time>
   <time name="total">  294.37   42.85</time>
   <dipole>
    <v name="dipole">      0.00000000       0.00000000       0.03271570 </v>
    <i name="Tr[quadrupol]">  -7119.07227494 </i>
    <i name="Echarged">      0.00000000 </i>
    <i name="Edipol_quadrupol">      0.00000000 </i>
    <i name="Eion">      0.00000000 </i>
   </dipole>
   <energy>
    <i name="e_fr_energy">   -504.89324393 </i>
    <i name="e_wo_entrp">   -504.89324393 </i>
    <i name="e_0_energy">   -504.89324393 </i>
   </energy>
  </scstep>
  <scstep>
   <time name="dav">  254.11   36.38</time>
   <time name="total">  264.26   38.51</time>
   <dipole>
    <v name="dipole">      0.00000000       0.00000000       0.03466279 </v>
    <i name="Tr[quadrupol]">  -7119.26019243 </i>
    <i name="Echarged">      0.00000000 </i>
    <i name="Edipol_quadrupol">      0.00000000 </i>
    <i name="Eion">      0.00000000 </i>
   </dipole>
   <energy>
    <i name="e_fr_energy">   -504.92183160 </i>
    <i name="e_wo_entrp">   -504.92183160 </i>
    <i name="e_0_energy">   -504.92183160 </i>
   </energy>
  </scstep>
  <scstep>
   <time name="dav">  288.51   41.40</time>
   <time name="total">  298.80   43.54</time>
   <dipole>
    <v name="dipole">      0.00000000       0.00000000       0.05177387 </v>
    <i name="Tr[quadrupol]">  -7119.45085512 </i>
    <i name="Echarged">      0.00000000 </i>
    <i name="Edipol_quadrupol">      0.00000000 </i>
    <i name="Eion">      0.00000000 </i>
   </dipole>
   <energy>
    <i name="e_fr_energy">   -504.98459623 </i>
    <i name="e_wo_entrp">   -504.98459623 </i>
    <i name="e_0_energy">   -504.98459623 </i>
   </energy>
  </scstep>
  <scstep>
   <time name="dav">  273.55   39.28</time>
   <time name="total">  284.06   41.46</time>
   <dipole>
    <v name="dipole">      0.00000000       0.00000000       0.05276474 </v>
    <i name="Tr[quadrupol]">  -7119.41550930 </i>
    <i name="Echarged">      0.00000000 </i>
    <i name="Edipol_quadrupol">      0.00000000 </i>
    <i name="Eion">      0.00000000 </i>
   </dipole>
   <energy>
    <i name="e_fr_energy">   -505.01432764 </i>
    <i name="e_wo_entrp">   -505.01432764 </i>
    <i name="e_0_energy">   -505.01432764 </i>
   </energy>
  </scstep>
  <scstep>
   <time name="dav">  284.25   40.75</time>
   <time name="total">  294.78   42.93</time>
   <dipole>
    <v name="dipole">      0.00000000       0.00000000       0.05350047 </v>
    <i name="Tr[quadrupol]">  -7119.20253948 </i>
    <i name="Echarged">      0.00000000 </i>
    <i name="Edipol_quadrupol">      0.00000000 </i>
    <i name="Eion">      0.00000000 </i>
   </dipole>
   <energy>
    <i name="e_fr_energy">   -505.04642207 </i>
    <i name="e_wo_entrp">   -505.04642207 </i>
    <i name="e_0_energy">   -505.04642207 </i>
   </energy>
  </scstep>
  <scstep>
   <time name="dav">  285.26   40.86</time>
   <time name="total">  295.65   43.01</time>
   <dipole>
    <v name="dipole">      0.00000000       0.00000000       0.04700627 </v>
    <i name="Tr[quadrupol]">  -7119.03758458 </i>
    <i name="Echarged">      0.00000000 </i>
    <i name="Edipol_quadrupol">      0.00000000 </i>
    <i name="Eion">      0.00000000 </i>
   </dipole>
   <energy>
    <i name="e_fr_energy">   -505.07946165 </i>
    <i name="e_wo_entrp">   -505.07946165 </i>
    <i name="e_0_energy">   -505.07946165 </i>
   </energy>
  </scstep>
  <scstep>
   <time name="dav">  286.57   41.10</time>
   <time name="total">  296.93   43.25</time>
   <dipole>
    <v name="dipole">      0.00000000       0.00000000       0.04797250 </v>
    <i name="Tr[quadrupol]">  -7119.06506169 </i>
    <i name="Echarged">      0.00000000 </i>
    <i name="Edipol_quadrupol">      0.00000000 </i>
    <i name="Eion">      0.00000000 </i>
   </dipole>
   <energy>
    <i name="e_fr_energy">   -505.11000184 </i>
    <i name="e_wo_entrp">   -505.11000184 </i>
    <i name="e_0_energy">   -505.11000184 </i>
   </energy>
  </scstep>
  <scstep>
   <time name="dav">  294.36   42.27</time>
   <time name="total">  304.66   44.42</time>
   <dipole>
    <v name="dipole">      0.00000000       0.00000000       0.04794780 </v>
    <i name="Tr[quadrupol]">  -7119.06243392 </i>
    <i name="Echarged">      0.00000000 </i>
    <i name="Edipol_quadrupol">      0.00000000 </i>
    <i name="Eion">      0.00000000 </i>
   </dipole>
   <energy>
    <i name="e_fr_energy">   -505.19890821 </i>
    <i name="e_wo_entrp">   -505.19890821 </i>
    <i name="e_0_energy">   -505.19890821 </i>
   </energy>
  </scstep>
  <scstep>
   <time name="dav">  290.17   41.58</time>
   <time name="total">  300.58   43.73</time>
   <dipole>
    <v name="dipole">      0.00000000       0.00000000       0.05113809 </v>
    <i name="Tr[quadrupol]">  -7118.96400050 </i>
    <i name="Echarged">      0.00000000 </i>
    <i name="Edipol_quadrupol">      0.00000000 </i>
    <i name="Eion">      0.00000000 </i>
   </dipole>
   <energy>
    <i name="e_fr_energy">   -505.26726106 </i>
    <i name="e_wo_entrp">   -505.26726106 </i>
    <i name="e_0_energy">   -505.26726106 </i>
   </energy>
  </scstep>
  <scstep>
   <time name="dav">  283.22   40.58</time>
   <time name="total">  293.81   42.78</time>
   <dipole>
    <v name="dipole">      0.00000000       0.00000000       0.04575436 </v>
    <i name="Tr[quadrupol]">  -7118.89182007 </i>
    <i name="Echarged">      0.00000000 </i>
    <i name="Edipol_quadrupol">      0.00000000 </i>
    <i name="Eion">      0.00000000 </i>
   </dipole>
   <energy>
    <i name="e_fr_energy">   -505.28724100 </i>
    <i name="e_wo_entrp">   -505.28724100 </i>
    <i name="e_0_energy">   -505.28724100 </i>
   </energy>
  </scstep>
  <scstep>
   <time name="dav">  263.70   37.78</time>
   <time name="total">  274.26   39.96</time>
   <dipole>
    <v name="dipole">      0.00000000       0.00000000       0.04283701 </v>
    <i name="Tr[quadrupol]">  -7118.89028283 </i>
    <i name="Echarged">      0.00000000 </i>
    <i name="Edipol_quadrupol">      0.00000000 </i>
    <i name="Eion">      0.00000000 </i>
   </dipole>
   <energy>
    <i name="e_fr_energy">   -505.29005415 </i>
    <i name="e_wo_entrp">   -505.29005415 </i>
    <i name="e_0_energy">   -505.29005415 </i>
   </energy>
  </scstep>
  <scstep>
   <time name="dav">  282.68   40.51</time>
   <time name="total">  293.09   42.69</time>
   <dipole>
    <v name="dipole">      0.00000000       0.00000000       0.04237045 </v>
    <i name="Tr[quadrupol]">  -7118.96340950 </i>
    <i name="Echarged">      0.00000000 </i>
    <i name="Edipol_quadrupol">      0.00000000 </i>
    <i name="Eion">      0.00000000 </i>
   </dipole>
   <energy>
    <i name="e_fr_energy">   -505.29301059 </i>
    <i name="e_wo_entrp">   -505.29301059 </i>
    <i name="e_0_energy">   -505.29301059 </i>
   </energy>
  </scstep>
  <scstep>
   <time name="dav">  277.06   39.79</time>
   <time name="total">  287.66   41.98</time>
   <dipole>
    <v name="dipole">      0.00000000       0.00000000       0.04433250 </v>
    <i name="Tr[quadrupol]">  -7118.98658220 </i>
    <i name="Echarged">      0.00000000 </i>
    <i name="Edipol_quadrupol">      0.00000000 </i>
    <i name="Eion">      0.00000000 </i>
   </dipole>
   <energy>
    <i name="e_fr_energy">   -505.29114494 </i>
    <i name="e_wo_entrp">   -505.29114494 </i>
    <i name="e_0_energy">   -505.29114494 </i>
   </energy>
  </scstep>
  <scstep>
   <time name="dav">  278.49   39.99</time>
   <time name="total">  289.09   42.17</time>
   <dipole>
    <v name="dipole">      0.00000000       0.00000000       0.04841709 </v>
    <i name="Tr[quadrupol]">  -7118.95355115 </i>
    <i name="Echarged">      0.00000000 </i>
    <i name="Edipol_quadrupol">      0.00000000 </i>
    <i name="Eion">      0.00000000 </i>
   </dipole>
   <energy>
    <i name="e_fr_energy">   -505.29301050 </i>
    <i name="e_wo_entrp">   -505.29301050 </i>
    <i name="e_0_energy">   -505.29301050 </i>
   </energy>
  </scstep>
  <scstep>
   <time name="dav">  279.96   40.21</time>
   <time name="total">  290.59   42.40</time>
   <dipole>
    <v name="dipole">      0.00000000       0.00000000       0.05080022 </v>
    <i name="Tr[quadrupol]">  -7118.90163317 </i>
    <i name="Echarged">      0.00000000 </i>
    <i name="Edipol_quadrupol">      0.00000000 </i>
    <i name="Eion">      0.00000000 </i>
   </dipole>
   <energy>
    <i name="e_fr_energy">   -505.29255413 </i>
    <i name="e_wo_entrp">   -505.29255413 </i>
    <i name="e_0_energy">   -505.29255413 </i>
   </energy>
  </scstep>
  <scstep>
   <time name="dav">  285.34   40.91</time>
   <time name="total">  295.68   43.12</time>
   <dipole>
    <v name="dipole">      0.00000000       0.00000000       0.05128535 </v>
    <i name="Tr[quadrupol]">  -7118.88247907 </i>
    <i name="Echarged">      0.00000000 </i>
    <i name="Edipol_quadrupol">      0.00000000 </i>
    <i name="Eion">      0.00000000 </i>
   </dipole>
   <energy>
    <i name="e_fr_energy">   -505.29339226 </i>
    <i name="e_wo_entrp">   -505.29339226 </i>
    <i name="e_0_energy">   -505.29339226 </i>
   </energy>
  </scstep>
  <scstep>
   <time name="dav">  278.72   39.93</time>
   <time name="total">  289.38   42.13</time>
   <dipole>
    <v name="dipole">      0.00000000       0.00000000       0.04898164 </v>
    <i name="Tr[quadrupol]">  -7118.85538313 </i>
    <i name="Echarged">      0.00000000 </i>
    <i name="Edipol_quadrupol">      0.00000000 </i>
    <i name="Eion">      0.00000000 </i>
   </dipole>
   <energy>
    <i name="e_fr_energy">   -505.29367731 </i>
    <i name="e_wo_entrp">   -505.29367731 </i>
    <i name="e_0_energy">   -505.29367731 </i>
   </energy>
  </scstep>
  <scstep>
   <time name="dav">  280.27   40.15</time>
   <time name="total">  290.89   42.33</time>
   <dipole>
    <v name="dipole">      0.00000000       0.00000000       0.04788982 </v>
    <i name="Tr[quadrupol]">  -7118.84231344 </i>
    <i name="Echarged">      0.00000000 </i>
    <i name="Edipol_quadrupol">      0.00000000 </i>
    <i name="Eion">      0.00000000 </i>
   </dipole>
   <energy>
    <i name="e_fr_energy">   -505.29404165 </i>
    <i name="e_wo_entrp">   -505.29404165 </i>
    <i name="e_0_energy">   -505.29404165 </i>
   </energy>
  </scstep>
  <scstep>
   <time name="dav">  274.62   39.40</time>
   <time name="total">  285.51   41.65</time>
   <dipole>
    <v name="dipole">      0.00000000       0.00000000       0.04726444 </v>
    <i name="Tr[quadrupol]">  -7118.83977565 </i>
    <i name="Echarged">      0.00000000 </i>
    <i name="Edipol_quadrupol">      0.00000000 </i>
    <i name="Eion">      0.00000000 </i>
   </dipole>
   <energy>
    <i name="e_fr_energy">   -505.29413824 </i>
    <i name="e_wo_entrp">   -505.29413824 </i>
    <i name="e_0_energy">   -505.29413824 </i>
   </energy>
  </scstep>
  <scstep>
   <time name="dav">  281.79   40.37</time>
   <time name="total">  292.56   42.57</time>
   <dipole>
    <v name="dipole">      0.00000000       0.00000000       0.04799954 </v>
    <i name="Tr[quadrupol]">  -7118.84737872 </i>
    <i name="Echarged">      0.00000000 </i>
    <i name="Edipol_quadrupol">      0.00000000 </i>
    <i name="Eion">      0.00000000 </i>
   </dipole>
   <energy>
    <i name="e_fr_energy">   -505.29424055 </i>
    <i name="e_wo_entrp">   -505.29424055 </i>
    <i name="e_0_energy">   -505.29424055 </i>
   </energy>
  </scstep>
  <scstep>
   <time name="dav">  282.77   40.56</time>
   <time name="total">  293.54   42.76</time>
   <dipole>
    <v name="dipole">      0.00000000       0.00000000       0.04721743 </v>
    <i name="Tr[quadrupol]">  -7118.85173498 </i>
    <i name="Echarged">      0.00000000 </i>
    <i name="Edipol_quadrupol">      0.00000000 </i>
    <i name="Eion">      0.00000000 </i>
   </dipole>
   <energy>
    <i name="e_fr_energy">   -505.29422210 </i>
    <i name="e_wo_entrp">   -505.29422210 </i>
    <i name="e_0_energy">   -505.29422210 </i>
   </energy>
  </scstep>
  <scstep>
   <time name="dav">  265.77   38.07</time>
   <time name="total">  276.62   40.28</time>
   <dipole>
    <v name="dipole">      0.00000000       0.00000000       0.04666987 </v>
    <i name="Tr[quadrupol]">  -7118.84326248 </i>
    <i name="Echarged">      0.00000000 </i>
    <i name="Edipol_quadrupol">      0.00000000 </i>
    <i name="Eion">      0.00000000 </i>
   </dipole>
   <energy>
    <i name="e_fr_energy">   -505.29428034 </i>
    <i name="e_wo_entrp">   -505.29428034 </i>
    <i name="e_0_energy">   -505.29428034 </i>
   </energy>
  </scstep>
  <scstep>
   <time name="dav">  253.41   36.31</time>
   <time name="total">  264.15   38.51</time>
   <dipole>
    <v name="dipole">      0.00000000       0.00000000       0.04629780 </v>
    <i name="Tr[quadrupol]">  -7118.83491806 </i>
    <i name="Echarged">      0.00000000 </i>
    <i name="Edipol_quadrupol">      0.00000000 </i>
    <i name="Eion">      0.00000000 </i>
   </dipole>
   <energy>
    <i name="e_fr_energy">   -505.29437002 </i>
    <i name="e_wo_entrp">   -505.29437002 </i>
    <i name="e_0_energy">   -505.29437002 </i>
   </energy>
  </scstep>
  <scstep>
   <time name="dav">  269.74   38.64</time>
   <time name="total">  280.52   40.86</time>
   <dipole>
    <v name="dipole">      0.00000000       0.00000000       0.04624796 </v>
    <i name="Tr[quadrupol]">  -7118.84000210 </i>
    <i name="Echarged">      0.00000000 </i>
    <i name="Edipol_quadrupol">      0.00000000 </i>
    <i name="Eion">      0.00000000 </i>
   </dipole>
   <energy>
    <i name="e_fr_energy">   -505.29438267 </i>
    <i name="e_wo_entrp">   -505.29438267 </i>
    <i name="e_0_energy">   -505.29438267 </i>
   </energy>
  </scstep>
  <scstep>
   <time name="dav">  255.89   36.70</time>
   <time name="total">  266.59   38.90</time>
   <dipole>
    <v name="dipole">      0.00000000       0.00000000       0.04602044 </v>
    <i name="Tr[quadrupol]">  -7118.83588995 </i>
    <i name="Echarged">      0.00000000 </i>
    <i name="Edipol_quadrupol">      0.00000000 </i>
    <i name="Eion">      0.00000000 </i>
   </dipole>
   <energy>
    <i name="e_fr_energy">   -505.29434861 </i>
    <i name="e_wo_entrp">   -505.29434861 </i>
    <i name="e_0_energy">   -505.29434861 </i>
   </energy>
  </scstep>
  <scstep>
   <time name="dav">  163.22   25.39</time>
   <time name="total">  174.11   27.62</time>
   <dipole>
    <v name="dipole">      0.00000000       0.00000000       0.04606575 </v>
    <i name="Tr[quadrupol]">  -7118.83820373 </i>
    <i name="Echarged">      0.00000000 </i>
    <i name="Edipol_quadrupol">      0.00000000 </i>
    <i name="Eion">      0.00000000 </i>
   </dipole>
   <energy>
    <i name="e_fr_energy">   -505.29436036 </i>
    <i name="e_wo_entrp">   -505.29436036 </i>
    <i name="e_0_energy">   -505.29436036 </i>
   </energy>
  </scstep>
  <scstep>
   <time name="dav">  113.77   21.70</time>
   <time name="total">  124.57   23.91</time>
   <dipole>
    <v name="dipole">      0.00000000       0.00000000       0.04585323 </v>
    <i name="Tr[quadrupol]">  -7118.83756691 </i>
    <i name="Echarged">      0.00000000 </i>
    <i name="Edipol_quadrupol">      0.00000000 </i>
    <i name="Eion">      0.00000000 </i>
   </dipole>
   <energy>
    <i name="e_fr_energy">   -505.29437913 </i>
    <i name="e_wo_entrp">   -505.29437913 </i>
    <i name="e_0_energy">   -505.29437913 </i>
   </energy>
  </scstep>
  <scstep>
   <time name="dav">  187.70   28.33</time>
   <time name="total">  198.53   30.54</time>
   <dipole>
    <v name="dipole">      0.00000000       0.00000000       0.04567160 </v>
    <i name="Tr[quadrupol]">  -7118.83511467 </i>
    <i name="Echarged">      0.00000000 </i>
    <i name="Edipol_quadrupol">      0.00000000 </i>
    <i name="Eion">      0.00000000 </i>
   </dipole>
   <energy>
    <i name="e_fr_energy">   -505.29440428 </i>
    <i name="e_wo_entrp">   -505.29440428 </i>
    <i name="e_0_energy">   -505.29440428 </i>
   </energy>
  </scstep>
  <scstep>
   <time name="dav">   94.25   20.13</time>
   <time name="total">  102.49   21.77</time>
   <dipole>
    <v name="dipole">      0.00000000       0.00000000       0.04594843 </v>
    <i name="Tr[quadrupol]">  -7118.83634692 </i>
    <i name="Echarged">      0.00000000 </i>
    <i name="Edipol_quadrupol">      0.00000000 </i>
    <i name="Eion">      0.00000000 </i>
   </dipole>
   <energy>
    <i name="alphaZ">   1814.17384032 </i>
    <i name="ewald"> 211611.40719319 </i>
    <i name="hartreedc">-262719.02700112 </i>
    <i name="XCdc">    999.43066334 </i>
    <i name="pawpsdc">  55355.08048697 </i>
    <i name="pawaedc"> -56476.19286619 </i>
    <i name="eentropy">      0.00000000 </i>
    <i name="bandstr">  -4349.43865264 </i>
    <i name="atom">  53259.27193834 </i>
    <i name="e_fr_energy">   -505.29439779 </i>
    <i name="e_wo_entrp">   -505.29439779 </i>
    <i name="e_0_energy">   -505.29439779 </i>
   </energy>
  </scstep>
  <structure>
   <crystal>
    <varray name="basis" >
     <v>       8.53269958       0.00000000       0.00000000 </v>
     <v>      -0.00051933       8.49699972       0.00000000 </v>
     <v>       0.00000000       0.00000000      23.59499931 </v>
    </varray>
    <i name="volume">   1710.69280467 </i>
    <varray name="rec_basis" >
     <v>       0.11719620       0.00000716       0.00000000 </v>
     <v>       0.00000000       0.11768860       0.00000000 </v>
     <v>       0.00000000       0.00000000       0.04238186 </v>
    </varray>
   </crystal>
   <varray name="positions" >
    <v>       0.00086000       0.99993000       0.24271000 </v>
    <v>       0.16437447       0.16799707       0.30311398 </v>
    <v>       0.49939323       0.16235766       0.30056017 </v>
    <v>       0.66822000       0.00107000       0.24272000 </v>
    <v>       0.83475155       0.16734451       0.30224043 </v>
    <v>       0.00044000       0.33497000       0.24240000 </v>
    <v>       0.16842448       0.50179797       0.30397618 </v>
    <v>       0.33469000       0.33305000       0.24267000 </v>
    <v>       0.49985389       0.50530510       0.30177478 </v>
    <v>       0.83399883       0.50065338       0.30159637 </v>
    <v>       0.16876293       0.83290627       0.30441664 </v>
    <v>       0.33342000       0.66555000       0.24261000 </v>
    <v>       0.83611603       0.83268947       0.30235251 </v>
    <v>       0.00064000       0.00119000       0.00199000 </v>
    <v>       0.00106707       0.00267859       0.36022628 </v>
    <v>       0.16843000       0.16962000       0.06269000 </v>
    <v>       0.33460000       0.00297000       0.00254000 </v>
    <v>       0.33202674       0.01155532       0.36260148 </v>
    <v>       0.50463000       0.16850000       0.06120000 </v>
    <v>       0.83272000       0.16670000       0.06193000 </v>
    <v>       0.00004000       0.33467000       0.00213000 </v>
    <v>       0.00222373       0.33643840       0.36031532 </v>
    <v>       0.16757000       0.49895000       0.06268000 </v>
    <v>       0.50099000       0.49896000       0.06206000 </v>
    <v>       0.83393000       0.50234000       0.06235000 </v>
    <v>       0.00121000       0.66785000       0.00188000 </v>
    <v>       0.99493737       0.66397820       0.36129385 </v>
    <v>       0.16792000       0.83462000       0.06228000 </v>
    <v>       0.33437000       0.66664000       0.00225000 </v>
    <v>       0.50152000       0.83563000       0.06217000 </v>
    <v>       0.66753000       0.66705000       0.00175000 </v>
    <v>       0.66908296       0.66613945       0.35902760 </v>
    <v>       0.83293000       0.83584000       0.06235000 </v>
    <v>       0.00121000       0.00098000       0.12225000 </v>
    <v>       0.16700000       0.16811000       0.18239000 </v>
    <v>       0.33470000       0.00227000       0.12192000 </v>
    <v>       0.50174000       0.16716000       0.18263000 </v>
    <v>       0.83421000       0.16639000       0.18283000 </v>
    <v>       0.16964000       0.49868000       0.18209000 </v>
    <v>       0.50219000       0.50081000       0.18317000 </v>
    <v>       0.66741000       0.33395000       0.12233000 </v>
    <v>       0.83134000       0.50253000       0.18283000 </v>
    <v>       0.00132000       0.66795000       0.12253000 </v>
    <v>       0.16898000       0.83509000       0.18243000 </v>
    <v>       0.33446000       0.66703000       0.12223000 </v>
    <v>       0.49971000       0.83538000       0.18278000 </v>
    <v>       0.66698000       0.66840000       0.12259000 </v>
    <v>       0.83488000       0.83403000       0.18294000 </v>
    <v>       0.33558000       0.99863000       0.24353000 </v>
    <v>       0.66801000       0.33262000       0.24229000 </v>
    <v>       0.00448000       0.66739000       0.24217000 </v>
    <v>       0.49786758       0.83627137       0.30245981 </v>
    <v>       0.66521000       0.67351000       0.24327000 </v>
    <v>       0.66620000       0.99680000       0.00000000 </v>
    <v>       0.65715550       0.99889406       0.36399298 </v>
    <v>       0.33213000       0.33386000       0.00135000 </v>
    <v>       0.33941913       0.32014515       0.36420188 </v>
    <v>       0.67040000       0.33673000       0.00321000 </v>
    <v>       0.65816747       0.33138650       0.36678086 </v>
    <v>       0.66728000       0.99998000       0.12246000 </v>
    <v>       0.99806000       0.33495000       0.12235000 </v>
    <v>       0.33675000       0.33238000       0.12261000 </v>
    <v>       0.33433153       0.67061631       0.39603825 </v>
   </varray>
  </structure>
  <varray name="forces" >
   <v>       0.03696912      -0.04993982      -0.14681096 </v>
   <v>      -0.00822221       0.00037253      -0.00561109 </v>
   <v>      -0.01110656       0.00209027       0.01225909 </v>
   <v>       0.09248731      -0.22717807      -0.10240313 </v>
   <v>       0.00371432       0.00333132      -0.00681871 </v>
   <v>       0.01610411       0.02618433      -0.20178339 </v>
   <v>       0.00502048      -0.00999957      -0.01501989 </v>
   <v>      -0.03302878       0.04311033      -0.06637303 </v>
   <v>       0.02133371       0.01079295       0.00395744 </v>
   <v>       0.00310208      -0.00458090       0.00147715 </v>
   <v>      -0.00555511      -0.00347089      -0.00842689 </v>
   <v>       0.06882153       0.14930650       0.11919107 </v>
   <v>       0.01210362       0.00472354      -0.00473272 </v>
   <v>      -0.00986681      -0.03978584       0.32417861 </v>
   <v>      -0.00992212      -0.01583303      -0.01534396 </v>
   <v>      -0.31531166      -0.28815832      -0.04297623 </v>
   <v>       0.00444277      -0.00545178       0.42152089 </v>
   <v>       0.00983529      -0.02294379      -0.00448735 </v>
   <v>      -0.19573216      -0.15869273       0.52651451 </v>
   <v>       0.47210783       0.14679480       0.12427790 </v>
   <v>      -0.07901570       0.02725334       0.44720730 </v>
   <v>       0.01479813       0.00286957      -0.00004925 </v>
   <v>      -0.25938943       0.30921046      -0.04550718 </v>
   <v>       0.12655591       0.47259883       0.15852654 </v>
   <v>       0.16699664       0.09235813      -0.11616060 </v>
   <v>       0.07900696       0.03160654       0.15187388 </v>
   <v>       0.00869920       0.00794634      -0.00031436 </v>
   <v>      -0.01535420      -0.01291547      -0.47515434 </v>
   <v>      -0.13747230       0.02157452       0.30610282 </v>
   <v>      -0.28659522      -0.38218019      -0.02509348 </v>
   <v>      -0.01006737      -0.04731793       0.45570417 </v>
   <v>      -0.01159220      -0.00068146      -0.00767116 </v>
   <v>       0.37390083      -0.37604352      -0.04162074 </v>
   <v>       0.00213056       0.16376158       0.04181464 </v>
   <v>       0.00438245      -0.00434901       0.06734543 </v>
   <v>       0.09146211       0.09120559       0.11040672 </v>
   <v>      -0.15604487      -0.05597328      -0.00764443 </v>
   <v>       0.10919516       0.06165573      -0.06949297 </v>
   <v>      -0.08069621      -0.01036519       0.05617174 </v>
   <v>       0.03176560       0.07760931       0.03956042 </v>
   <v>       0.04858245      -0.00507399       0.04397975 </v>
   <v>       0.09413413       0.06335906       0.05456362 </v>
   <v>      -0.08365044      -0.04293342      -0.02847611 </v>
   <v>      -0.03697270      -0.04884766       0.01187613 </v>
   <v>       0.15356701       0.00917404       0.03796754 </v>
   <v>      -0.03505739      -0.07353543       0.05039354 </v>
   <v>      -0.07157937      -0.06439914       0.08653994 </v>
   <v>       0.04252489      -0.09258083       0.10333780 </v>
   <v>      -0.02230274       0.02382552      -0.13280897 </v>
   <v>      -0.05809696      -0.01754510       0.28036412 </v>
   <v>      -0.08594794       0.04800372      -0.01985739 </v>
   <v>       0.00296808       0.00405413       0.00551699 </v>
   <v>      -0.05135289       0.03486412      -0.23938525 </v>
   <v>       0.06079480       0.43626291      -0.75064443 </v>
   <v>       0.00153714       0.01547431       0.00210256 </v>
   <v>       0.33072494       0.00908857      -0.63847604 </v>
   <v>      -0.00104047       0.00054224      -0.00387957 </v>
   <v>      -0.34013476      -0.35860678      -0.18021221 </v>
   <v>      -0.00290610       0.00774434       0.00246191 </v>
   <v>      -0.10827220       0.18240907      -0.26820084 </v>
   <v>      -0.10637518      -0.06909875       0.05251513 </v>
   <v>       0.13634452      -0.09253364      -0.43554820 </v>
   <v>       0.00254841      -0.00014304       0.00727552 </v>
  </varray>
  <varray name="stress" >
   <v>     -20.12145047      -0.06804532       0.19815147 </v>
   <v>      -0.06804579     -19.08913050       0.01101614 </v>
   <v>       0.19815140       0.01101552      -4.34215610 </v>
  </varray>
  <energy>
   <i name="e_fr_energy">   -505.29439779 </i>
   <i name="e_wo_entrp">   -505.29439779 </i>
   <i name="e_0_energy">   -505.29439779 </i>
  </energy>
  <time name="totalsc">15150.76 2252.84</time>
  <eigenvalues>
   <array>
    <dimension dim="1">band</dimension>
    <dimension dim="2">kpoint</dimension>
    <dimension dim="3">spin</dimension>
    <field>eigene</field>
    <field>occ</field>
    <set>
     <set comment="spin 1">
      <set comment="kpoint 1">
       <r>  -42.8548    1.0000 </r>
       <r>  -42.7771    1.0000 </r>
       <r>  -42.7635    1.0000 </r>
       <r>  -42.7621    1.0000 </r>
       <r>  -42.7475    1.0000 </r>
       <r>  -42.7352    1.0000 </r>
       <r>  -42.7283    1.0000 </r>
       <r>  -42.7244    1.0000 </r>
       <r>  -42.7025    1.0000 </r>
       <r>  -42.6951    1.0000 </r>
       <r>  -42.6859    1.0000 </r>
       <r>  -42.6778    1.0000 </r>
       <r>  -42.6638    1.0000 </r>
       <r>  -42.6591    1.0000 </r>
       <r>  -42.6545    1.0000 </r>
       <r>  -42.1418    1.0000 </r>
       <r>  -42.0557    1.0000 </r>
[...]
       <r>   -38.8931     0.0000    42.0000 </r>
       <r>   -38.7226     0.0000    42.0000 </r>
       <r>   -38.5521     0.0000    42.0000 </r>
       <r>   -38.3815     0.0000    42.0000 </r>
       <r>   -38.2110     0.0000    42.0000 </r>
       <r>   -38.0405     0.0000    42.0000 </r>
       <r>   -37.8700     0.0000    42.0000 </r>
       <r>   -37.6994     0.0000    42.0000 </r>
       <r>   -37.5289     0.0000    42.0000 </r>
       <r>   -37.3584     0.0000    42.0000 </r>
       <r>   -37.1879     0.0000    42.0000 </r>
       <r>   -37.0174     0.0000    42.0000 </r>
       <r>   -36.8468     0.0000    42.0000 </r>
       <r>   -36.6763     0.0000    42.0000 </r>
       <r>   -36.5058     0.0000    42.0000 </r>
       <r>   -36.3353     0.0000    42.0000 </r>
       <r>   -36.1647     0.0000    42.0000 </r>
       <r>   -35.9942     0.0000    42.0000 </r>
       <r>   -35.8237     0.0000    42.0000 </r>
       <r>   -35.6532     0.0000    42.0000 </r>
       <r>   -35.4826     0.0000    42.0000 </r>
       <r>   -35.3121     0.0000    42.0000 </r>
       <r>   -35.1416     0.0000    42.0000 </r>
       <r>   -34.9711     0.0000    42.0000 </r>
       <r>   -34.8005     0.0000    42.0000 </r>
       <r>   -34.6300     0.0000    42.0000 </r>
       <r>   -34.4595     0.0000    42.0000 </r>
       <r>   -34.2890     0.0000    42.0000 </r>
       <r>   -34.1184     0.0000    42.0000 </r>
       <r>   -33.9479     0.0000    42.0000 </r>
       <r>   -33.7774     0.0000    42.0000 </r>
       <r>   -33.6069     0.0000    42.0000 </r>
       <r>   -33.4364     0.0000    42.0000 </r>
       <r>   -33.2658     0.0000    42.0000 </r>
       <r>   -33.0953     0.0000    42.0000 </r>
       <r>   -32.9248     0.0000    42.0000 </r>
       <r>   -32.7543     0.0000    42.0000 </r>
       <r>   -32.5837     0.0000    42.0000 </r>
       <r>   -32.4132     0.0000    42.0000 </r>
       <r>   -32.2427     0.0000    42.0000 </r>
       <r>   -32.0722     0.0000    42.0000 </r>
       <r>   -31.9016     0.0000    42.0000 </r>
       <r>   -31.7311     0.0000    42.0000 </r>
       <r>   -31.5606     0.0000    42.0000 </r>
       <r>   -31.3901     0.0000    42.0000 </r>
       <r>   -31.2195     0.0000    42.0000 </r>
       <r>   -31.0490     0.0000    42.0000 </r>
       <r>   -30.8785     0.0000    42.0000 </r>
       <r>   -30.7080     0.0000    42.0000 </r>
       <r>   -30.5374     0.0000    42.0000 </r>
       <r>   -30.3669     0.0000    42.0000 </r>
       <r>   -30.1964     0.0000    42.0000 </r>
       <r>   -30.0259     0.0000    42.0000 </r>
       <r>   -29.8554     0.0000    42.0000 </r>
       <r>   -29.6848     0.0000    42.0000 </r>
       <r>   -29.5143     0.0000    42.0000 </r>
       <r>   -29.3438     0.0000    42.0000 </r>
       <r>   -29.1733     0.0000    42.0000 </r>
       <r>   -29.0027     0.0000    42.0000 </r>
       <r>   -28.8322     0.0000    42.0000 </r>
       <r>   -28.6617     0.0000    42.0000 </r>
       <r>   -28.4912     0.0000    42.0000 </r>
       <r>   -28.3206     0.0000    42.0000 </r>
       <r>   -28.1501     0.0000    42.0000 </r>
       <r>   -27.9796     0.0000    42.0000 </r>
       <r>   -27.8091     0.0000    42.0000 </r>
       <r>   -27.6385     0.0000    42.0000 </r>
       <r>   -27.4680     0.0000    42.0000 </r>
       <r>   -27.2975     0.0000    42.0000 </r>
       <r>   -27.1270     0.0000    42.0000 </r>
       <r>   -26.9564     0.0000    42.0000 </r>
       <r>   -26.7859     0.0000    42.0000 </r>
       <r>   -26.6154     0.0000    42.0000 </r>
       <r>   -26.4449     0.0000    42.0000 </r>
       <r>   -26.2744     0.0000    42.0000 </r>
       <r>   -26.1038     0.0000    42.0000 </r>
       <r>   -25.9333     0.0000    42.0000 </r>
       <r>   -25.7628     0.0000    42.0000 </r>
       <r>   -25.5923     0.0000    42.0000 </r>
       <r>   -25.4217     0.0000    42.0000 </r>
       <r>   -25.2512     0.0000    42.0000 </r>
       <r>   -25.0807     0.0000    42.0000 </r>
       <r>   -24.9102     0.0000    42.0000 </r>
       <r>   -24.7396     0.0000    42.0000 </r>
       <r>   -24.5691     0.0000    42.0000 </r>
       <r>   -24.3986     0.0000    42.0000 </r>
       <r>   -24.2281     0.0000    42.0000 </r>
       <r>   -24.0575     0.0000    42.0000 </r>
       <r>   -23.8870     0.0000    42.0000 </r>
       <r>   -23.7165     0.0000    42.0000 </r>
       <r>   -23.5460     0.0000    42.0000 </r>
       <r>   -23.3754     0.0000    42.0000 </r>
       <r>   -23.2049     0.0000    42.0000 </r>
       <r>   -23.0344     0.0000    42.0000 </r>
       <r>   -22.8639     0.0000    42.0000 </r>
       <r>   -22.6934     0.0000    42.0000 </r>
       <r>   -22.5228     0.0000    42.0000 </r>
       <r>   -22.3523     0.0000    42.0000 </r>
       <r>   -22.1818     0.0000    42.0000 </r>
       <r>   -22.0113     0.0000    42.0000 </r>
       <r>   -21.8407     0.0000    42.0000 </r>
       <r>   -21.6702     0.0000    42.0000 </r>
       <r>   -21.4997     0.0000    42.0000 </r>
       <r>   -21.3292     0.0000    42.0000 </r>
       <r>   -21.1586     0.0000    42.0000 </r>
       <r>   -20.9881     0.0000    42.0000 </r>
       <r>   -20.8176     0.0000    42.0000 </r>
       <r>   -20.6471     0.0000    42.0000 </r>
       <r>   -20.4765     0.0000    42.0000 </r>
       <r>   -20.3060     0.0000    42.0000 </r>
       <r>   -20.1355     0.0000    42.0000 </r>
       <r>   -19.9650     0.0000    42.0000 </r>
       <r>   -19.7944     0.0000    42.0000 </r>
       <r>   -19.6239     0.0000    42.0000 </r>
       <r>   -19.4534     0.0000    42.0000 </r>
       <r>   -19.2829     0.0000    42.0000 </r>
       <r>   -19.1124     0.0000    42.0000 </r>
       <r>   -18.9418     0.0000    42.0000 </r>
       <r>   -18.7713     0.0000    42.0000 </r>
       <r>   -18.6008     0.0000    42.0000 </r>
       <r>   -18.4303     0.0000    42.0000 </r>
       <r>   -18.2597     0.0000    42.0000 </r>
       <r>   -18.0892     0.0000    42.0000 </r>
       <r>   -17.9187     0.0000    42.0000 </r>
       <r>   -17.7482     0.0000    42.0000 </r>
       <r>   -17.5776     0.0000    42.0000 </r>
       <r>   -17.4071     0.0000    42.0000 </r>
       <r>   -17.2366     0.0000    42.0000 </r>
       <r>   -17.0661     0.0000    42.0000 </r>
       <r>   -16.8955     0.0000    42.0000 </r>
       <r>   -16.7250     0.0000    42.0000 </r>
       <r>   -16.5545     0.0000    42.0000 </r>
       <r>   -16.3840     0.0000    42.0000 </r>
       <r>   -16.2134     0.0000    42.0000 </r>
       <r>   -16.0429     0.0000    42.0000 </r>
       <r>   -15.8724     0.0000    42.0000 </r>
       <r>   -15.7019     0.0000    42.0000 </r>
       <r>   -15.5314     0.0000    42.0000 </r>
       <r>   -15.3608    29.3214    47.0000 </r>
       <r>   -15.1903     0.0000    47.0000 </r>
       <r>   -15.0198     0.0000    47.0000 </r>
       <r>   -14.8493     0.0000    47.0000 </r>
       <r>   -14.6787     0.0000    47.0000 </r>
       <r>   -14.5082     0.0000    47.0000 </r>
       <r>   -14.3377     0.0000    47.0000 </r>
       <r>   -14.1672     0.0000    47.0000 </r>
       <r>   -13.9966     0.0000    47.0000 </r>
       <r>   -13.8261     0.0000    47.0000 </r>
       <r>   -13.6556     0.0000    47.0000 </r>
       <r>   -13.4851     0.0000    47.0000 </r>
       <r>   -13.3145     0.0000    47.0000 </r>
       <r>   -13.1440     0.0000    47.0000 </r>
       <r>   -12.9735     0.0000    47.0000 </r>
       <r>   -12.8030     0.0000    47.0000 </r>
       <r>   -12.6324     0.0000    47.0000 </r>
       <r>   -12.4619     0.0000    47.0000 </r>
       <r>   -12.2914     0.0000    47.0000 </r>
       <r>   -12.1209     0.0000    47.0000 </r>
       <r>   -11.9504     0.0000    47.0000 </r>
       <r>   -11.7798     0.0000    47.0000 </r>
       <r>   -11.6093     0.0000    47.0000 </r>
       <r>   -11.4388     0.0000    47.0000 </r>
       <r>   -11.2683     0.0000    47.0000 </r>
       <r>   -11.0977     0.0000    47.0000 </r>
       <r>   -10.9272     0.0000    47.0000 </r>
       <r>   -10.7567     0.0000    47.0000 </r>
       <r>   -10.5862     0.0000    47.0000 </r>
       <r>   -10.4156     0.0000    47.0000 </r>
       <r>   -10.2451     0.0000    47.0000 </r>
       <r>   -10.0746     0.0000    47.0000 </r>
       <r>    -9.9041     0.0000    47.0000 </r>
       <r>    -9.7335     0.0000    47.0000 </r>
       <r>    -9.5630     0.0000    47.0000 </r>
       <r>    -9.3925     0.0000    47.0000 </r>
       <r>    -9.2220     0.0000    47.0000 </r>
       <r>    -9.0514     0.0000    47.0000 </r>
       <r>    -8.8809     0.0000    47.0000 </r>
       <r>    -8.7104     0.0000    47.0000 </r>
       <r>    -8.5399     0.0000    47.0000 </r>
       <r>    -8.3694     0.0000    47.0000 </r>
       <r>    -8.1988     0.0000    47.0000 </r>
       <r>    -8.0283     0.0000    47.0000 </r>
       <r>    -7.8578     0.0000    47.0000 </r>
       <r>    -7.6873    20.8666    47.4645 </r>
       <r>    -7.5167     0.3665    48.0000 </r>
       <r>    -7.3462     0.0000    48.0000 </r>
       <r>    -7.1757     0.0000    48.0000 </r>
       <r>    -7.0052     0.0000    48.0000 </r>
       <r>    -6.8346     2.2634    48.1771 </r>
       <r>    -6.6641     1.6497    48.4581 </r>
       <r>    -6.4936     1.5682    48.7602 </r>
       <r>    -6.3231     1.3248    48.9568 </r>
       <r>    -6.1525     1.7585    49.2736 </r>
       <r>    -5.9820     1.4233    49.5443 </r>
       <r>    -5.8115     2.7367    49.9865 </r>
       <r>    -5.6410     3.9600    50.4858 </r>
       <r>    -5.4704     3.5160    51.1231 </r>
       <r>    -5.2999     2.5018    51.5891 </r>
       <r>    -5.1294     3.8294    52.0631 </r>
       <r>    -4.9589     5.2147    52.6961 </r>
       <r>    -4.7884     4.6405    53.7392 </r>
       <r>    -4.6178     3.2328    54.1981 </r>
       <r>    -4.4473     5.2532    55.0052 </r>
       <r>    -4.2768     2.0816    55.5968 </r>
       <r>    -4.1063    10.5567    56.4422 </r>
       <r>    -3.9357     9.2122    58.0236 </r>
       <r>    -3.7652     6.7318    59.2387 </r>
       <r>    -3.5947     5.4540    60.4112 </r>
       <r>    -3.4242     7.4267    61.4661 </r>
       <r>    -3.2536    17.5552    63.5735 </r>
       <r>    -3.0831    26.2123    66.2704 </r>
       <r>    -2.9126    21.4094    69.4413 </r>
       <r>    -2.7421    34.8612    73.1696 </r>
       <r>    -2.5715    22.8874    76.5164 </r>
       <r>    -2.4010    28.3740    80.1674 </r>
       <r>    -2.2305    40.2046    84.8469 </r>
       <r>    -2.0600    53.2799    89.7970 </r>
       <r>    -1.8895    57.0857    95.2081 </r>
       <r>    -1.7189    65.5849   101.0533 </r>
       <r>    -1.5484    54.5980   107.1603 </r>
       <r>    -1.3779    72.6456   113.9299 </r>
       <r>    -1.2074    90.7879   122.1902 </r>
       <r>    -1.0368    72.5484   130.4566 </r>
       <r>    -0.8663    75.6393   138.8294 </r>
       <r>    -0.6958    97.0096   147.8802 </r>
       <r>    -0.5253   106.5524   158.6725 </r>
       <r>    -0.3547   110.7872   169.3656 </r>
       <r>    -0.1842   126.5342   180.6541 </r>
       <r>    -0.0137    99.1475   191.3065 </r>
       <r>     0.1568    88.6749   199.7093 </r>
       <r>     0.3274    57.2963   206.0588 </r>
       <r>     0.4979    40.9608   211.2855 </r>
       <r>     0.6684    34.0336   215.3573 </r>
       <r>     0.8389    57.2347   220.2976 </r>
       <r>     1.0095    61.1052   226.5666 </r>
       <r>     1.1800    91.0478   233.0537 </r>
       <r>     1.3505    91.2153   241.9070 </r>
       <r>     1.5210   125.8709   251.5366 </r>
       <r>     1.6915   108.7501   262.3529 </r>
       <r>     1.8621   188.7240   274.5969 </r>
       <r>     2.0326   120.8547   286.2908 </r>
       <r>     2.2031   158.3934   300.1319 </r>
       <r>     2.3736   145.3253   315.0230 </r>
       <r>     2.5442   169.1913   331.7036 </r>
       <r>     2.7147   148.5947   346.8389 </r>
       <r>     2.8852   122.0193   357.0630 </r>
       <r>     3.0557    78.1613   364.3777 </r>
       <r>     3.2263    54.0284   370.1033 </r>
       <r>     3.3968     8.0634   372.0000 </r>
       <r>     3.5673     0.0000   372.0000 </r>
       <r>     3.7378     0.0000   372.0000 </r>
       <r>     3.9084     0.0000   372.0000 </r>
       <r>     4.0789     0.0000   372.0000 </r>
       <r>     4.2494     0.0000   372.0000 </r>
       <r>     4.4199     0.0000   372.0000 </r>
       <r>     4.5905     0.0000   372.0000 </r>
       <r>     4.7610     0.0000   372.0000 </r>
       <r>     4.9315     0.0000   372.0000 </r>
       <r>     5.1020     0.0000   372.0000 </r>
       <r>     5.2725     0.0000   372.0000 </r>
       <r>     5.4431     0.0000   372.0000 </r>
       <r>     5.6136     0.0000   372.0000 </r>
      </set>
     </set>
    </array>
   </total>
  </dos>
 </calculation>
 <structure name="finalpos" >
  <crystal>
   <varray name="basis" >
    <v>       8.53269958       0.00000000       0.00000000 </v>
    <v>      -0.00051933       8.49699972       0.00000000 </v>
    <v>       0.00000000       0.00000000      23.59499931 </v>
   </varray>
   <i name="volume">   1710.69280467 </i>
   <varray name="rec_basis" >
    <v>       0.11719620       0.00000716       0.00000000 </v>
    <v>       0.00000000       0.11768860       0.00000000 </v>
    <v>       0.00000000       0.00000000       0.04238186 </v>
   </varray>
  </crystal>
  <varray name="positions" >
   <v>       0.00086000       0.99993000       0.24271000 </v>
   <v>       0.16437447       0.16799707       0.30311398 </v>
   <v>       0.49939323       0.16235766       0.30056017 </v>
   <v>       0.66822000       0.00107000       0.24272000 </v>
   <v>       0.83475155       0.16734451       0.30224043 </v>
   <v>       0.00044000       0.33497000       0.24240000 </v>
   <v>       0.16842448       0.50179797       0.30397618 </v>
   <v>       0.33469000       0.33305000       0.24267000 </v>
   <v>       0.49985389       0.50530510       0.30177478 </v>
   <v>       0.83399883       0.50065338       0.30159637 </v>
   <v>       0.16876293       0.83290627       0.30441664 </v>
   <v>       0.33342000       0.66555000       0.24261000 </v>
   <v>       0.83611603       0.83268947       0.30235251 </v>
   <v>       0.00064000       0.00119000       0.00199000 </v>
   <v>       0.00106707       0.00267859       0.36022628 </v>
   <v>       0.16843000       0.16962000       0.06269000 </v>
   <v>       0.33460000       0.00297000       0.00254000 </v>
   <v>       0.33202674       0.01155532       0.36260148 </v>
   <v>       0.50463000       0.16850000       0.06120000 </v>
   <v>       0.83272000       0.16670000       0.06193000 </v>
   <v>       0.00004000       0.33467000       0.00213000 </v>
   <v>       0.00222373       0.33643840       0.36031532 </v>
   <v>       0.16757000       0.49895000       0.06268000 </v>
   <v>       0.50099000       0.49896000       0.06206000 </v>
   <v>       0.83393000       0.50234000       0.06235000 </v>
   <v>       0.00121000       0.66785000       0.00188000 </v>
   <v>       0.99493737       0.66397820       0.36129385 </v>
   <v>       0.16792000       0.83462000       0.06228000 </v>
   <v>       0.33437000       0.66664000       0.00225000 </v>
   <v>       0.50152000       0.83563000       0.06217000 </v>
   <v>       0.66753000       0.66705000       0.00175000 </v>
   <v>       0.66908296       0.66613945       0.35902760 </v>
   <v>       0.83293000       0.83584000       0.06235000 </v>
   <v>       0.00121000       0.00098000       0.12225000 </v>
   <v>       0.16700000       0.16811000       0.18239000 </v>
   <v>       0.33470000       0.00227000       0.12192000 </v>
   <v>       0.50174000       0.16716000       0.18263000 </v>
   <v>       0.83421000       0.16639000       0.18283000 </v>
   <v>       0.16964000       0.49868000       0.18209000 </v>
   <v>       0.50219000       0.50081000       0.18317000 </v>
   <v>       0.66741000       0.33395000       0.12233000 </v>
   <v>       0.83134000       0.50253000       0.18283000 </v>
   <v>       0.00132000       0.66795000       0.12253000 </v>
   <v>       0.16898000       0.83509000       0.18243000 </v>
   <v>       0.33446000       0.66703000       0.12223000 </v>
   <v>       0.49971000       0.83538000       0.18278000 </v>
   <v>       0.66698000       0.66840000       0.12259000 </v>
   <v>       0.83488000       0.83403000       0.18294000 </v>
   <v>       0.33558000       0.99863000       0.24353000 </v>
   <v>       0.66801000       0.33262000       0.24229000 </v>
   <v>       0.00448000       0.66739000       0.24217000 </v>
   <v>       0.49786758       0.83627137       0.30245981 </v>
   <v>       0.66521000       0.67351000       0.24327000 </v>
   <v>       0.66620000       0.99680000       0.00000000 </v>
   <v>       0.65715550       0.99889406       0.36399298 </v>
   <v>       0.33213000       0.33386000       0.00135000 </v>
   <v>       0.33941913       0.32014515       0.36420188 </v>
   <v>       0.67040000       0.33673000       0.00321000 </v>
   <v>       0.65816747       0.33138650       0.36678086 </v>
   <v>       0.66728000       0.99998000       0.12246000 </v>
   <v>       0.99806000       0.33495000       0.12235000 </v>
   <v>       0.33675000       0.33238000       0.12261000 </v>
   <v>       0.33433153       0.67061631       0.39603825 </v>
  </varray>
  <varray name="selective"  type="logical" >
   <v type="logical" >  F  F  F </v>
   <v type="logical" >  T  T  T </v>
   <v type="logical" >  T  T  T </v>
   <v type="logical" >  F  F  F </v>
   <v type="logical" >  T  T  T </v>
   <v type="logical" >  F  F  F </v>
   <v type="logical" >  T  T  T </v>
   <v type="logical" >  F  F  F </v>
   <v type="logical" >  T  T  T </v>
   <v type="logical" >  T  T  T </v>
   <v type="logical" >  T  T  T </v>
   <v type="logical" >  F  F  F </v>
   <v type="logical" >  T  T  T </v>
   <v type="logical" >  F  F  F </v>
   <v type="logical" >  T  T  T </v>
   <v type="logical" >  F  F  F </v>
   <v type="logical" >  F  F  F </v>
   <v type="logical" >  T  T  T </v>
   <v type="logical" >  F  F  F </v>
   <v type="logical" >  F  F  F </v>
   <v type="logical" >  F  F  F </v>
   <v type="logical" >  T  T  T </v>
   <v type="logical" >  F  F  F </v>
   <v type="logical" >  F  F  F </v>
   <v type="logical" >  F  F  F </v>
   <v type="logical" >  F  F  F </v>
   <v type="logical" >  T  T  T </v>
   <v type="logical" >  F  F  F </v>
   <v type="logical" >  F  F  F </v>
   <v type="logical" >  F  F  F </v>
   <v type="logical" >  F  F  F </v>
   <v type="logical" >  T  T  T </v>
   <v type="logical" >  F  F  F </v>
   <v type="logical" >  F  F  F </v>
   <v type="logical" >  F  F  F </v>
   <v type="logical" >  F  F  F </v>
   <v type="logical" >  F  F  F </v>
   <v type="logical" >  F  F  F </v>
   <v type="logical" >  F  F  F </v>
   <v type="logical" >  F  F  F </v>
   <v type="logical" >  F  F  F </v>
   <v type="logical" >  F  F  F </v>
   <v type="logical" >  F  F  F </v>
   <v type="logical" >  F  F  F </v>
   <v type="logical" >  F  F  F </v>
   <v type="logical" >  F  F  F </v>
   <v type="logical" >  F  F  F </v>
   <v type="logical" >  F  F  F </v>
   <v type="logical" >  F  F  F </v>
   <v type="logical" >  F  F  F </v>
   <v type="logical" >  F  F  F </v>
   <v type="logical" >  T  T  T </v>
   <v type="logical" >  F  F  F </v>
   <v type="logical" >  F  F  F </v>
   <v type="logical" >  T  T  T </v>
   <v type="logical" >  F  F  F </v>
   <v type="logical" >  T  T  T </v>
   <v type="logical" >  F  F  F </v>
   <v type="logical" >  T  T  T </v>
   <v type="logical" >  F  F  F </v>
   <v type="logical" >  F  F  F </v>
   <v type="logical" >  F  F  F </v>
   <v type="logical" >  T  T  T </v>
  </varray>
  <nose>
   <v>      -3.00000000       0.00000000       0.00010000       0.00010000 </v>
  </nose>
 </structure>
</modeling>
