  63  63   0   0
  0.2715385E+02  0.8532700E-09  0.8497000E-09  0.2359500E-08  0.5000000E-15
  1.000000000000000E-004
  CAR 
 ni3al                                   
      5.61095167    -45.70628548  301      0.97806896      1.00000000
    -45.706  0.0000E+00  0.0000E+00  0.0000E+00  0.0000E+00
    -45.535  0.0000E+00  0.0000E+00  0.0000E+00  0.0000E+00
    -45.364  0.0000E+00  0.0000E+00  0.0000E+00  0.0000E+00
    -45.193  0.0000E+00  0.0000E+00  0.0000E+00  0.0000E+00
    -45.022  0.0000E+00  0.0000E+00  0.0000E+00  0.0000E+00
    -44.851  0.0000E+00  0.0000E+00  0.0000E+00  0.0000E+00
    -44.680  0.0000E+00  0.0000E+00  0.0000E+00  0.0000E+00
    -44.509  0.0000E+00  0.0000E+00  0.0000E+00  0.0000E+00
    -44.338  0.0000E+00  0.0000E+00  0.0000E+00  0.0000E+00
    -44.167  0.0000E+00  0.0000E+00  0.0000E+00  0.0000E+00
    -43.996  0.0000E+00  0.0000E+00  0.0000E+00  0.0000E+00
    -43.825  0.0000E+00  0.0000E+00  0.0000E+00  0.0000E+00
    -43.654  0.0000E+00  0.0000E+00  0.0000E+00  0.0000E+00
    -43.483  0.0000E+00  0.0000E+00  0.0000E+00  0.0000E+00
    -43.311  0.0000E+00  0.1754E+02  0.0000E+00  0.3000E+01
    -43.140  0.0000E+00  0.6431E+02  0.0000E+00  0.1400E+02
    -42.969  0.0000E+00  0.3508E+02  0.0000E+00  0.2000E+02
    -42.798  0.5846E+01  0.2338E+02  0.1000E+01  0.2400E+02
    -42.627  0.4677E+02  0.1754E+02  0.9000E+01  0.2700E+02
    -42.456  0.0000E+00  0.0000E+00  0.9000E+01  0.2700E+02
    -42.285  0.5846E+01  0.0000E+00  0.1000E+02  0.2700E+02
    -42.114  0.1169E+02  0.0000E+00  0.1200E+02  0.2700E+02
    -41.943  0.5846E+01  0.0000E+00  0.1300E+02  0.2700E+02
    -41.772  0.7015E+02  0.0000E+00  0.2500E+02  0.2700E+02
    -41.601  0.4677E+02  0.0000E+00  0.3300E+02  0.2700E+02
    -41.430  0.0000E+00  0.1754E+02  0.3300E+02  0.3000E+02
    -41.259  0.0000E+00  0.0000E+00  0.3300E+02  0.3000E+02
    -41.088  0.0000E+00  0.0000E+00  0.3300E+02  0.3000E+02
    -40.917  0.0000E+00  0.0000E+00  0.3300E+02  0.3000E+02
    -40.746  0.0000E+00  0.0000E+00  0.3300E+02  0.3000E+02
    -40.575  0.0000E+00  0.0000E+00  0.3300E+02  0.3000E+02
    -40.404  0.0000E+00  0.1169E+02  0.3300E+02  0.3200E+02
    -40.232  0.1169E+02  0.0000E+00  0.3500E+02  0.3200E+02
    -40.061  0.2338E+02  0.5846E+01  0.3900E+02  0.3300E+02
    -39.890  0.0000E+00  0.1754E+02  0.3900E+02  0.3600E+02
    -39.719  0.0000E+00  0.1169E+02  0.3900E+02  0.3800E+02
    -39.548  0.0000E+00  0.5846E+01  0.3900E+02  0.3900E+02
    -39.377  0.0000E+00  0.0000E+00  0.3900E+02  0.3900E+02
    -39.206  0.0000E+00  0.0000E+00  0.3900E+02  0.3900E+02
    -39.035  0.0000E+00  0.0000E+00  0.3900E+02  0.3900E+02
    -38.864  0.0000E+00  0.0000E+00  0.3900E+02  0.3900E+02
    -38.693  0.0000E+00  0.0000E+00  0.3900E+02  0.3900E+02
    -38.522  0.0000E+00  0.0000E+00  0.3900E+02  0.3900E+02
    -38.351  0.0000E+00  0.0000E+00  0.3900E+02  0.3900E+02
    -38.180  0.0000E+00  0.0000E+00  0.3900E+02  0.3900E+02
    -38.009  0.0000E+00  0.0000E+00  0.3900E+02  0.3900E+02
    -37.838  0.0000E+00  0.0000E+00  0.3900E+02  0.3900E+02
    -37.667  0.0000E+00  0.0000E+00  0.3900E+02  0.3900E+02
    -37.496  0.0000E+00  0.0000E+00  0.3900E+02  0.3900E+02
    -37.324  0.0000E+00  0.0000E+00  0.3900E+02  0.3900E+02
    -37.153  0.0000E+00  0.0000E+00  0.3900E+02  0.3900E+02
    -36.982  0.0000E+00  0.0000E+00  0.3900E+02  0.3900E+02
    -36.811  0.0000E+00  0.0000E+00  0.3900E+02  0.3900E+02
    -36.640  0.0000E+00  0.0000E+00  0.3900E+02  0.3900E+02
    -36.469  0.0000E+00  0.0000E+00  0.3900E+02  0.3900E+02
    -36.298  0.0000E+00  0.0000E+00  0.3900E+02  0.3900E+02
    -36.127  0.0000E+00  0.0000E+00  0.3900E+02  0.3900E+02
    -35.956  0.0000E+00  0.0000E+00  0.3900E+02  0.3900E+02
    -35.785  0.0000E+00  0.0000E+00  0.3900E+02  0.3900E+02
    -35.614  0.0000E+00  0.0000E+00  0.3900E+02  0.3900E+02
    -35.443  0.0000E+00  0.0000E+00  0.3900E+02  0.3900E+02
    -35.272  0.0000E+00  0.0000E+00  0.3900E+02  0.3900E+02
    -35.101  0.0000E+00  0.0000E+00  0.3900E+02  0.3900E+02
    -34.930  0.0000E+00  0.0000E+00  0.3900E+02  0.3900E+02
    -34.759  0.0000E+00  0.0000E+00  0.3900E+02  0.3900E+02
    -34.588  0.0000E+00  0.0000E+00  0.3900E+02  0.3900E+02
    -34.416  0.0000E+00  0.0000E+00  0.3900E+02  0.3900E+02
    -34.245  0.0000E+00  0.0000E+00  0.3900E+02  0.3900E+02
    -34.074  0.0000E+00  0.0000E+00  0.3900E+02  0.3900E+02
    -33.903  0.0000E+00  0.0000E+00  0.3900E+02  0.3900E+02
    -33.732  0.0000E+00  0.0000E+00  0.3900E+02  0.3900E+02
    -33.561  0.0000E+00  0.0000E+00  0.3900E+02  0.3900E+02
    -33.390  0.0000E+00  0.0000E+00  0.3900E+02  0.3900E+02
    -33.219  0.0000E+00  0.0000E+00  0.3900E+02  0.3900E+02
    -33.048  0.0000E+00  0.0000E+00  0.3900E+02  0.3900E+02
    -32.877  0.0000E+00  0.0000E+00  0.3900E+02  0.3900E+02
    -32.706  0.0000E+00  0.0000E+00  0.3900E+02  0.3900E+02
    -32.535  0.0000E+00  0.0000E+00  0.3900E+02  0.3900E+02
    -32.364  0.0000E+00  0.0000E+00  0.3900E+02  0.3900E+02
    -32.193  0.0000E+00  0.0000E+00  0.3900E+02  0.3900E+02
    -32.022  0.0000E+00  0.0000E+00  0.3900E+02  0.3900E+02
    -31.851  0.0000E+00  0.0000E+00  0.3900E+02  0.3900E+02
    -31.680  0.0000E+00  0.0000E+00  0.3900E+02  0.3900E+02
    -31.509  0.0000E+00  0.0000E+00  0.3900E+02  0.3900E+02
    -31.337  0.0000E+00  0.0000E+00  0.3900E+02  0.3900E+02
    -31.166  0.0000E+00  0.0000E+00  0.3900E+02  0.3900E+02
    -30.995  0.0000E+00  0.0000E+00  0.3900E+02  0.3900E+02
    -30.824  0.0000E+00  0.0000E+00  0.3900E+02  0.3900E+02
    -30.653  0.0000E+00  0.0000E+00  0.3900E+02  0.3900E+02
    -30.482  0.0000E+00  0.0000E+00  0.3900E+02  0.3900E+02
    -30.311  0.0000E+00  0.0000E+00  0.3900E+02  0.3900E+02
    -30.140  0.0000E+00  0.0000E+00  0.3900E+02  0.3900E+02
    -29.969  0.0000E+00  0.0000E+00  0.3900E+02  0.3900E+02
    -29.798  0.0000E+00  0.0000E+00  0.3900E+02  0.3900E+02
    -29.627  0.0000E+00  0.0000E+00  0.3900E+02  0.3900E+02
    -29.456  0.0000E+00  0.0000E+00  0.3900E+02  0.3900E+02
    -29.285  0.0000E+00  0.0000E+00  0.3900E+02  0.3900E+02
    -29.114  0.0000E+00  0.0000E+00  0.3900E+02  0.3900E+02
    -28.943  0.0000E+00  0.0000E+00  0.3900E+02  0.3900E+02
    -28.772  0.0000E+00  0.0000E+00  0.3900E+02  0.3900E+02
    -28.601  0.0000E+00  0.0000E+00  0.3900E+02  0.3900E+02
    -28.429  0.0000E+00  0.0000E+00  0.3900E+02  0.3900E+02
    -28.258  0.0000E+00  0.0000E+00  0.3900E+02  0.3900E+02
    -28.087  0.0000E+00  0.0000E+00  0.3900E+02  0.3900E+02
    -27.916  0.0000E+00  0.0000E+00  0.3900E+02  0.3900E+02
    -27.745  0.0000E+00  0.0000E+00  0.3900E+02  0.3900E+02
    -27.574  0.0000E+00  0.0000E+00  0.3900E+02  0.3900E+02
    -27.403  0.0000E+00  0.0000E+00  0.3900E+02  0.3900E+02
    -27.232  0.0000E+00  0.0000E+00  0.3900E+02  0.3900E+02
    -27.061  0.0000E+00  0.0000E+00  0.3900E+02  0.3900E+02
    -26.890  0.0000E+00  0.0000E+00  0.3900E+02  0.3900E+02
    -26.719  0.0000E+00  0.0000E+00  0.3900E+02  0.3900E+02
    -26.548  0.0000E+00  0.0000E+00  0.3900E+02  0.3900E+02
    -26.377  0.0000E+00  0.0000E+00  0.3900E+02  0.3900E+02
    -26.206  0.0000E+00  0.0000E+00  0.3900E+02  0.3900E+02
    -26.035  0.0000E+00  0.0000E+00  0.3900E+02  0.3900E+02
    -25.864  0.0000E+00  0.0000E+00  0.3900E+02  0.3900E+02
    -25.693  0.0000E+00  0.0000E+00  0.3900E+02  0.3900E+02
    -25.522  0.0000E+00  0.0000E+00  0.3900E+02  0.3900E+02
    -25.350  0.0000E+00  0.0000E+00  0.3900E+02  0.3900E+02
    -25.179  0.0000E+00  0.0000E+00  0.3900E+02  0.3900E+02
    -25.008  0.0000E+00  0.0000E+00  0.3900E+02  0.3900E+02
    -24.837  0.0000E+00  0.0000E+00  0.3900E+02  0.3900E+02
    -24.666  0.0000E+00  0.0000E+00  0.3900E+02  0.3900E+02
    -24.495  0.0000E+00  0.0000E+00  0.3900E+02  0.3900E+02
    -24.324  0.0000E+00  0.0000E+00  0.3900E+02  0.3900E+02
    -24.153  0.0000E+00  0.0000E+00  0.3900E+02  0.3900E+02
    -23.982  0.0000E+00  0.0000E+00  0.3900E+02  0.3900E+02
    -23.811  0.0000E+00  0.0000E+00  0.3900E+02  0.3900E+02
    -23.640  0.0000E+00  0.0000E+00  0.3900E+02  0.3900E+02
    -23.469  0.0000E+00  0.0000E+00  0.3900E+02  0.3900E+02
    -23.298  0.0000E+00  0.0000E+00  0.3900E+02  0.3900E+02
    -23.127  0.0000E+00  0.0000E+00  0.3900E+02  0.3900E+02
    -22.956  0.0000E+00  0.0000E+00  0.3900E+02  0.3900E+02
    -22.785  0.0000E+00  0.0000E+00  0.3900E+02  0.3900E+02
    -22.614  0.0000E+00  0.0000E+00  0.3900E+02  0.3900E+02
    -22.442  0.0000E+00  0.0000E+00  0.3900E+02  0.3900E+02
    -22.271  0.0000E+00  0.0000E+00  0.3900E+02  0.3900E+02
    -22.100  0.0000E+00  0.0000E+00  0.3900E+02  0.3900E+02
    -21.929  0.0000E+00  0.0000E+00  0.3900E+02  0.3900E+02
    -21.758  0.0000E+00  0.0000E+00  0.3900E+02  0.3900E+02
    -21.587  0.0000E+00  0.0000E+00  0.3900E+02  0.3900E+02
    -21.416  0.0000E+00  0.0000E+00  0.3900E+02  0.3900E+02
    -21.245  0.0000E+00  0.0000E+00  0.3900E+02  0.3900E+02
    -21.074  0.0000E+00  0.0000E+00  0.3900E+02  0.3900E+02
    -20.903  0.0000E+00  0.0000E+00  0.3900E+02  0.3900E+02
    -20.732  0.0000E+00  0.0000E+00  0.3900E+02  0.3900E+02
    -20.561  0.0000E+00  0.0000E+00  0.3900E+02  0.3900E+02
    -20.390  0.0000E+00  0.0000E+00  0.3900E+02  0.3900E+02
    -20.219  0.0000E+00  0.0000E+00  0.3900E+02  0.3900E+02
    -20.048  0.0000E+00  0.0000E+00  0.3900E+02  0.3900E+02
    -19.877  0.0000E+00  0.0000E+00  0.3900E+02  0.3900E+02
    -19.706  0.0000E+00  0.0000E+00  0.3900E+02  0.3900E+02
    -19.534  0.0000E+00  0.0000E+00  0.3900E+02  0.3900E+02
    -19.363  0.0000E+00  0.0000E+00  0.3900E+02  0.3900E+02
    -19.192  0.0000E+00  0.0000E+00  0.3900E+02  0.3900E+02
    -19.021  0.0000E+00  0.0000E+00  0.3900E+02  0.3900E+02
    -18.850  0.0000E+00  0.0000E+00  0.3900E+02  0.3900E+02
    -18.679  0.0000E+00  0.0000E+00  0.3900E+02  0.3900E+02
    -18.508  0.0000E+00  0.0000E+00  0.3900E+02  0.3900E+02
    -18.337  0.0000E+00  0.0000E+00  0.3900E+02  0.3900E+02
    -18.166  0.0000E+00  0.0000E+00  0.3900E+02  0.3900E+02
    -17.995  0.0000E+00  0.0000E+00  0.3900E+02  0.3900E+02
    -17.824  0.0000E+00  0.0000E+00  0.3900E+02  0.3900E+02
    -17.653  0.0000E+00  0.0000E+00  0.3900E+02  0.3900E+02
    -17.482  0.0000E+00  0.0000E+00  0.3900E+02  0.3900E+02
    -17.311  0.0000E+00  0.0000E+00  0.3900E+02  0.3900E+02
    -17.140  0.0000E+00  0.0000E+00  0.3900E+02  0.3900E+02
    -16.969  0.0000E+00  0.0000E+00  0.3900E+02  0.3900E+02
    -16.798  0.0000E+00  0.0000E+00  0.3900E+02  0.3900E+02
    -16.627  0.0000E+00  0.0000E+00  0.3900E+02  0.3900E+02
    -16.455  0.0000E+00  0.0000E+00  0.3900E+02  0.3900E+02
    -16.284  0.0000E+00  0.0000E+00  0.3900E+02  0.3900E+02
    -16.113  0.0000E+00  0.0000E+00  0.3900E+02  0.3900E+02
    -15.942  0.0000E+00  0.0000E+00  0.3900E+02  0.3900E+02
    -15.771  0.0000E+00  0.0000E+00  0.3900E+02  0.3900E+02
    -15.600  0.0000E+00  0.0000E+00  0.3900E+02  0.3900E+02
    -15.429  0.2923E+02  0.2923E+02  0.4400E+02  0.4400E+02
    -15.258  0.0000E+00  0.0000E+00  0.4400E+02  0.4400E+02
    -15.087  0.0000E+00  0.0000E+00  0.4400E+02  0.4400E+02
    -14.916  0.0000E+00  0.0000E+00  0.4400E+02  0.4400E+02
    -14.745  0.0000E+00  0.0000E+00  0.4400E+02  0.4400E+02
    -14.574  0.0000E+00  0.0000E+00  0.4400E+02  0.4400E+02
    -14.403  0.0000E+00  0.0000E+00  0.4400E+02  0.4400E+02
    -14.232  0.0000E+00  0.0000E+00  0.4400E+02  0.4400E+02
    -14.061  0.0000E+00  0.0000E+00  0.4400E+02  0.4400E+02
    -13.890  0.0000E+00  0.0000E+00  0.4400E+02  0.4400E+02
    -13.719  0.0000E+00  0.0000E+00  0.4400E+02  0.4400E+02
    -13.547  0.0000E+00  0.0000E+00  0.4400E+02  0.4400E+02
    -13.376  0.0000E+00  0.0000E+00  0.4400E+02  0.4400E+02
    -13.205  0.0000E+00  0.0000E+00  0.4400E+02  0.4400E+02
    -13.034  0.0000E+00  0.0000E+00  0.4400E+02  0.4400E+02
    -12.863  0.0000E+00  0.0000E+00  0.4400E+02  0.4400E+02
    -12.692  0.0000E+00  0.0000E+00  0.4400E+02  0.4400E+02
    -12.521  0.0000E+00  0.0000E+00  0.4400E+02  0.4400E+02
    -12.350  0.0000E+00  0.0000E+00  0.4400E+02  0.4400E+02
    -12.179  0.0000E+00  0.0000E+00  0.4400E+02  0.4400E+02
    -12.008  0.0000E+00  0.0000E+00  0.4400E+02  0.4400E+02
    -11.837  0.0000E+00  0.0000E+00  0.4400E+02  0.4400E+02
    -11.666  0.0000E+00  0.0000E+00  0.4400E+02  0.4400E+02
    -11.495  0.0000E+00  0.0000E+00  0.4400E+02  0.4400E+02
    -11.324  0.0000E+00  0.0000E+00  0.4400E+02  0.4400E+02
    -11.153  0.0000E+00  0.0000E+00  0.4400E+02  0.4400E+02
    -10.982  0.0000E+00  0.0000E+00  0.4400E+02  0.4400E+02
    -10.811  0.0000E+00  0.0000E+00  0.4400E+02  0.4400E+02
    -10.640  0.0000E+00  0.0000E+00  0.4400E+02  0.4400E+02
    -10.468  0.0000E+00  0.0000E+00  0.4400E+02  0.4400E+02
    -10.297  0.0000E+00  0.0000E+00  0.4400E+02  0.4400E+02
    -10.126  0.0000E+00  0.0000E+00  0.4400E+02  0.4400E+02
     -9.955  0.0000E+00  0.0000E+00  0.4400E+02  0.4400E+02
     -9.784  0.0000E+00  0.0000E+00  0.4400E+02  0.4400E+02
     -9.613  0.0000E+00  0.0000E+00  0.4400E+02  0.4400E+02
     -9.442  0.0000E+00  0.0000E+00  0.4400E+02  0.4400E+02
     -9.271  0.0000E+00  0.0000E+00  0.4400E+02  0.4400E+02
     -9.100  0.0000E+00  0.0000E+00  0.4400E+02  0.4400E+02
     -8.929  0.0000E+00  0.0000E+00  0.4400E+02  0.4400E+02
     -8.758  0.0000E+00  0.0000E+00  0.4400E+02  0.4400E+02
     -8.587  0.0000E+00  0.0000E+00  0.4400E+02  0.4400E+02
     -8.416  0.0000E+00  0.0000E+00  0.4400E+02  0.4400E+02
     -8.245  0.0000E+00  0.0000E+00  0.4400E+02  0.4400E+02
     -8.074  0.0000E+00  0.0000E+00  0.4400E+02  0.4400E+02
     -7.903  0.0000E+00  0.0000E+00  0.4400E+02  0.4400E+02
     -7.732  0.5846E+01  0.5846E+01  0.4500E+02  0.4500E+02
     -7.560  0.0000E+00  0.0000E+00  0.4500E+02  0.4500E+02
     -7.389  0.0000E+00  0.0000E+00  0.4500E+02  0.4500E+02
     -7.218  0.0000E+00  0.0000E+00  0.4500E+02  0.4500E+02
     -7.047  0.1671E+01  0.0000E+00  0.4508E+02  0.4500E+02
     -6.876  0.2013E+01  0.2206E+01  0.4539E+02  0.4520E+02
     -6.705  0.1937E+01  0.1704E+01  0.4570E+02  0.4549E+02
     -6.534  0.1029E+01  0.1413E+01  0.4591E+02  0.4579E+02
     -6.363  0.1982E+01  0.1445E+01  0.4621E+02  0.4598E+02
     -6.192  0.1652E+01  0.1754E+01  0.4652E+02  0.4631E+02
     -6.021  0.2697E+01  0.1402E+01  0.4699E+02  0.4658E+02
     -5.850  0.5374E+01  0.1900E+01  0.4757E+02  0.4704E+02
     -5.679  0.2445E+01  0.4452E+01  0.4823E+02  0.4764E+02
     -5.508  0.2818E+01  0.2339E+01  0.4864E+02  0.4824E+02
     -5.337  0.4041E+01  0.2536E+01  0.4917E+02  0.4864E+02
     -5.166  0.6161E+01  0.3582E+01  0.4987E+02  0.4916E+02
     -4.995  0.3931E+01  0.5581E+01  0.5090E+02  0.4985E+02
     -4.824  0.5989E+01  0.3797E+01  0.5166E+02  0.5083E+02
     -4.652  0.1187E+02  0.4033E+01  0.5248E+02  0.5135E+02
     -4.481  0.7316E+01  0.4651E+01  0.5357E+02  0.5220E+02
     -4.310  0.1223E+02  0.4477E+01  0.5500E+02  0.5280E+02
     -4.139  0.1482E+02  0.7036E+01  0.5689E+02  0.5383E+02
     -3.968  0.2580E+02  0.9771E+01  0.5936E+02  0.5533E+02
     -3.797  0.3323E+02  0.8324E+01  0.6345E+02  0.5660E+02
     -3.626  0.5744E+02  0.6260E+01  0.6935E+02  0.5761E+02
     -3.455  0.4802E+02  0.1179E+02  0.7560E+02  0.5891E+02
     -3.284  0.9009E+02  0.1423E+02  0.8264E+02  0.6106E+02
     -3.113  0.8288E+02  0.2271E+02  0.9286E+02  0.6399E+02
     -2.942  0.6761E+02  0.1715E+02  0.1003E+03  0.6704E+02
     -2.771  0.7522E+02  0.4058E+02  0.1072E+03  0.7131E+02
     -2.600  0.1133E+03  0.2120E+02  0.1170E+03  0.7416E+02
     -2.429  0.1236E+03  0.5128E+02  0.1306E+03  0.7814E+02
     -2.258  0.1704E+03  0.4705E+02  0.1426E+03  0.8308E+02
     -2.087  0.1302E+03  0.4577E+02  0.1540E+03  0.8869E+02
     -1.916  0.1538E+03  0.6631E+02  0.1661E+03  0.9458E+02
     -1.745  0.1471E+03  0.4602E+02  0.1772E+03  0.1001E+03
     -1.573  0.1685E+03  0.6682E+02  0.1897E+03  0.1059E+03
     -1.402  0.1225E+03  0.9353E+02  0.2011E+03  0.1136E+03
     -1.231  0.9760E+02  0.9385E+02  0.2116E+03  0.1229E+03
     -1.060  0.7241E+02  0.7978E+02  0.2193E+03  0.1312E+03
     -0.889  0.8363E+02  0.1051E+03  0.2282E+03  0.1401E+03
     -0.718  0.1093E+03  0.9418E+02  0.2375E+03  0.1492E+03
     -0.547  0.1447E+03  0.1099E+03  0.2497E+03  0.1596E+03
     -0.376  0.1718E+03  0.1288E+03  0.2650E+03  0.1706E+03
     -0.205  0.1605E+03  0.1199E+03  0.2814E+03  0.1814E+03
     -0.034  0.1174E+03  0.9758E+02  0.2939E+03  0.1918E+03
      0.137  0.8085E+02  0.7638E+02  0.3032E+03  0.1993E+03
      0.308  0.7077E+02  0.5220E+02  0.3106E+03  0.2061E+03
      0.479  0.6023E+02  0.4038E+02  0.3176E+03  0.2118E+03
      0.650  0.5299E+02  0.6037E+02  0.3240E+03  0.2168E+03
      0.821  0.6084E+02  0.4882E+02  0.3303E+03  0.2216E+03
      0.992  0.4538E+02  0.7090E+02  0.3351E+03  0.2279E+03
      1.163  0.4046E+02  0.1678E+03  0.3399E+03  0.2356E+03
      1.335  0.6115E+02  0.8535E+02  0.3454E+03  0.2450E+03
      1.506  0.6161E+02  0.1009E+03  0.3516E+03  0.2542E+03
      1.677  0.7238E+02  0.1242E+03  0.3576E+03  0.2657E+03
      1.848  0.5647E+02  0.1261E+03  0.3637E+03  0.2780E+03
      2.019  0.5056E+02  0.1244E+03  0.3695E+03  0.2902E+03
      2.190  0.1242E+02  0.1338E+03  0.3720E+03  0.3047E+03
      2.361  0.0000E+00  0.1565E+03  0.3720E+03  0.3207E+03
      2.532  0.0000E+00  0.2081E+03  0.3720E+03  0.3372E+03
      2.703  0.0000E+00  0.1361E+03  0.3720E+03  0.3514E+03
      2.874  0.0000E+00  0.9166E+02  0.3720E+03  0.3616E+03
      3.045  0.0000E+00  0.5410E+02  0.3720E+03  0.3681E+03
      3.216  0.0000E+00  0.1712E+02  0.3720E+03  0.3719E+03
      3.387  0.0000E+00  0.3654E+00  0.3720E+03  0.3720E+03
      3.558  0.0000E+00  0.0000E+00  0.3720E+03  0.3720E+03
      3.729  0.0000E+00  0.0000E+00  0.3720E+03  0.3720E+03
      3.900  0.0000E+00  0.0000E+00  0.3720E+03  0.3720E+03
      4.071  0.0000E+00  0.0000E+00  0.3720E+03  0.3720E+03
      4.242  0.0000E+00  0.0000E+00  0.3720E+03  0.3720E+03
      4.414  0.0000E+00  0.0000E+00  0.3720E+03  0.3720E+03
      4.585  0.0000E+00  0.0000E+00  0.3720E+03  0.3720E+03
      4.756  0.0000E+00  0.0000E+00  0.3720E+03  0.3720E+03
      4.927  0.0000E+00  0.0000E+00  0.3720E+03  0.3720E+03
      5.098  0.0000E+00  0.0000E+00  0.3720E+03  0.3720E+03
      5.269  0.0000E+00  0.0000E+00  0.3720E+03  0.3720E+03
      5.440  0.0000E+00  0.0000E+00  0.3720E+03  0.3720E+03
      5.611  0.0000E+00  0.0000E+00  0.3720E+03  0.3720E+03
