       N       E                     dE             d eps       ncg     rms          rms(c)
DAV:   1     0.552469290358E+04    0.55247E+04   -0.23804E+05 15792   0.143E+03
DAV:   2    -0.687466311373E+02   -0.55934E+04   -0.53899E+04 14880   0.417E+02
DAV:   3    -0.523537099227E+03   -0.45479E+03   -0.40249E+03 15264   0.162E+02
DAV:   4    -0.579749162319E+03   -0.56212E+02   -0.52699E+02 26016   0.444E+01
DAV:   5    -0.582837489238E+03   -0.30883E+01   -0.29218E+01 24472   0.105E+01    0.931E+01
DAV:   6    -0.707976178308E+03   -0.12514E+03   -0.29577E+02 27088   0.831E+01    0.150E+02
DAV:   7    -0.676144709162E+03    0.31831E+02   -0.30143E+02 27680   0.110E+02    0.145E+02
DAV:   8    -0.553047728997E+03    0.12310E+03   -0.15042E+02 27224   0.763E+01    0.905E+01
DAV:   9    -0.530468498969E+03    0.22579E+02   -0.59691E+01 25408   0.366E+01    0.693E+01
DAV:  10    -0.514270713291E+03    0.16198E+02   -0.43861E+01 24304   0.276E+01    0.590E+01
DAV:  11    -0.497925140670E+03    0.16346E+02   -0.64914E+01 21168   0.311E+01    0.483E+01
DAV:  12    -0.492943119222E+03    0.49820E+01   -0.31025E+01 20320   0.203E+01    0.368E+01
DAV:  13    -0.493256789125E+03   -0.31367E+00   -0.49769E+00 21360   0.914E+00    0.352E+01
DAV:  14    -0.493204494837E+03    0.52294E-01   -0.72319E-01 19192   0.267E+00    0.358E+01
DAV:  15    -0.495582255362E+03   -0.23778E+01   -0.11165E+00 26848   0.448E+00    0.390E+01
DAV:  16    -0.495825115039E+03   -0.24286E+00   -0.26603E+00 26320   0.662E+00    0.347E+01
DAV:  17    -0.499178788474E+03   -0.33537E+01   -0.44612E+00 23512   0.713E+00    0.310E+01
DAV:  18    -0.501071378653E+03   -0.18926E+01   -0.40201E+00 24856   0.805E+00    0.284E+01
DAV:  19    -0.502620563095E+03   -0.15492E+01   -0.18291E+00 23896   0.427E+00    0.275E+01
DAV:  20    -0.502838971320E+03   -0.21841E+00   -0.41697E-01 23232   0.253E+00    0.266E+01
DAV:  21    -0.503009594165E+03   -0.17062E+00   -0.68030E-01 25664   0.374E+00    0.232E+01
DAV:  22    -0.503693936155E+03   -0.68434E+00   -0.14100E+00 25800   0.510E+00    0.191E+01
DAV:  23    -0.503929475268E+03   -0.23554E+00   -0.63533E-01 24552   0.279E+00    0.171E+01
DAV:  24    -0.504170704772E+03   -0.24123E+00   -0.45812E-01 25880   0.250E+00    0.156E+01
DAV:  25    -0.504664430937E+03   -0.49373E+00   -0.13374E+00 26216   0.384E+00    0.127E+01
DAV:  26    -0.504943841599E+03   -0.27941E+00   -0.13855E+00 24760   0.343E+00    0.103E+01
DAV:  27    -0.505011204008E+03   -0.67362E-01   -0.55321E-01 25064   0.261E+00    0.868E+00
DAV:  28    -0.505046502972E+03   -0.35299E-01   -0.22283E-01 24016   0.224E+00    0.794E+00
DAV:  29    -0.505097756708E+03   -0.51254E-01   -0.61140E-01 25640   0.227E+00    0.629E+00
DAV:  30    -0.505097025801E+03    0.73091E-03   -0.21823E-01 22136   0.133E+00    0.523E+00
DAV:  31    -0.505087829268E+03    0.91965E-02   -0.63523E-02 23424   0.101E+00    0.426E+00
DAV:  32    -0.505074325323E+03    0.13504E-01   -0.72186E-02 24928   0.102E+00    0.331E+00
DAV:  33    -0.505077259406E+03   -0.29341E-02   -0.63059E-02 25232   0.102E+00    0.226E+00
DAV:  34    -0.505083050833E+03   -0.57914E-02   -0.35288E-02 24688   0.631E-01    0.194E+00
DAV:  35    -0.505085610731E+03   -0.25599E-02   -0.26357E-02 24032   0.636E-01    0.156E+00
DAV:  36    -0.505085880482E+03   -0.26975E-03   -0.11842E-02 24064   0.351E-01    0.138E+00
DAV:  37    -0.505086596550E+03   -0.71607E-03   -0.68599E-03 25912   0.337E-01    0.107E+00
DAV:  38    -0.505086530232E+03    0.66319E-04   -0.70982E-03 23784   0.294E-01    0.829E-01
DAV:  39    -0.505085901348E+03    0.62888E-03   -0.24701E-03 22424   0.186E-01    0.711E-01
DAV:  40    -0.505085785699E+03    0.11565E-03   -0.20503E-03 26888   0.194E-01    0.564E-01
DAV:  41    -0.505086774602E+03   -0.98890E-03   -0.25153E-03 24976   0.165E-01    0.473E-01
DAV:  42    -0.505087514716E+03   -0.74011E-03   -0.13157E-03 23808   0.101E-01    0.511E-01
DAV:  43    -0.505087712856E+03   -0.19814E-03   -0.60043E-04 24408   0.128E-01    0.405E-01
DAV:  44    -0.505087624784E+03    0.88072E-04   -0.13537E-03 26280   0.149E-01    0.228E-01
DAV:  45    -0.505087652249E+03   -0.27465E-04   -0.62276E-04 23360   0.682E-02    0.170E-01
DAV:  46    -0.505087677292E+03   -0.25044E-04   -0.21408E-04 20016   0.471E-02    0.142E-01
DAV:  47    -0.505087730208E+03   -0.52915E-04   -0.23023E-04 24120   0.548E-02    0.118E-01
DAV:  48    -0.505087778448E+03   -0.48240E-04   -0.13722E-04 21592   0.374E-02    0.107E-01
DAV:  49    -0.505087764113E+03    0.14335E-04   -0.48364E-05 15200   0.298E-02    0.781E-02
DAV:  50    -0.505087767907E+03   -0.37940E-05   -0.59035E-05 12312   0.244E-02
   1 F= -.50508777E+03 E0= -.50508777E+03  d E =0.000000E+00  mag=   107.4062
