 vasp.6.3.2 27Jun22 (build Mar 15 2023 15:45:48) complex                        
  
 executed on             LinuxIFC date 2025.02.10  23:36:36
 running on    4 total cores
 distrk:  each k-point on    4 cores,    1 groups
 distr:  one band on NCORE=   1 cores,    4 groups


--------------------------------------------------------------------------------------------------------


 INCAR:
   SYSTEM = ni3al
   PREC = Accurate
   EDIFF = 1E-5
   ISTART = 0
   ICHARG = 2
   LREAL = Auto
   NSW = 0
   ISIF = 2
   IBRION = -1
   ISMEAR = -5
   SIGMA = 0.1
   ENCUT = 450
   ALGO = Normal
   LMAXMIX = 4
   AMIN = 0.01
   NELM = 150
   LCHARG = .T.
   LWAVE = .T.
   ISPIN = 2
   NCORE = 4
   LELF = .T.
   LDIPOL = .TRUE.
   IDIPOL = 3
   AMIX = 0.05
   BMIX = 0.0001
   IMIX = 4

 POTCAR:    PAW_PBE Fe 06Sep2000                  
 POTCAR:    PAW_PBE Cr_pv 02Aug2007               
 POTCAR:    PAW_PBE Pb_d 06Sep2000                
 -----------------------------------------------------------------------------
|                                                                             |
|           W    W    AA    RRRRR   N    N  II  N    N   GGGG   !!!           |
|           W    W   A  A   R    R  NN   N  II  NN   N  G    G  !!!           |
|           W    W  A    A  R    R  N N  N  II  N N  N  G       !!!           |
|           W WW W  AAAAAA  RRRRR   N  N N  II  N  N N  G  GGG   !            |
|           WW  WW  A    A  R   R   N   NN  II  N   NN  G    G                |
|           W    W  A    A  R    R  N    N  II  N    N   GGGG   !!!           |
|                                                                             |
|     You use a magnetic or noncollinear calculation, but did not specify     |
|     the initial magnetic moment with the MAGMOM tag. Note that a            |
|     default of 1 will be used for all atoms. This ferromagnetic setup       |
|     may break the symmetry of the crystal, in particular it may rule        |
|     out finding an antiferromagnetic solution. Thence, we recommend         |
|     setting the initial magnetic moment manually or verifying carefully     |
|     that this magnetic setup is desired.                                    |
|                                                                             |
 -----------------------------------------------------------------------------

 POTCAR:    PAW_PBE Fe 06Sep2000                  
   VRHFIN =Fe:  d7 s1                                                                               
   LEXCH  = PE                                                                                      
   EATOM  =   594.3153 eV,   43.6809 Ry                                                             
                                                                                                    
   TITEL  = PAW_PBE Fe 06Sep2000                                                                    
   LULTRA =        F    use ultrasoft PP ?                                                          
   IUNSCR =        1    unscreen: 0-lin 1-nonlin 2-no                                               
   RPACOR =    2.000    partial core radius                                                         
   POMASS =   55.847; ZVAL   =    8.000    mass and valenz                                          
   RCORE  =    2.300    outmost cutoff radius                                                       
   RWIGS  =    2.460; RWIGS  =    1.302    wigner-seitz radius (au A)                               
   ENMAX  =  267.882; ENMIN  =  200.911 eV                                                          
   RCLOC  =    1.701    cutoff for local pot                                                        
   LCOR   =        T    correct aug charges                                                         
   LPAW   =        T    paw PP                                                                      
   EAUG   =  511.368                                                                                
   DEXC   =    0.000                                                                                
   RMAX   =    2.356    core radius for proj-oper                                                   
   RAUG   =    1.300    factor for augmentation sphere                                              
   RDEP   =    2.442    radius for radial grids                                                     
   RDEPT  =    1.890    core radius for aug-charge                                                  
                                                                                                    
   Atomic configuration                                                                             
    9 entries                                                                                       
     n  l   j            E        occ.                                                              
     1  0  0.50     -6993.8440   2.0000                                                             
     2  0  0.50      -814.6047   2.0000                                                             
     2  1  1.50      -693.3689   6.0000                                                             
     3  0  0.50       -89.4732   2.0000                                                             
     3  1  1.50       -55.6373   6.0000                                                             
     3  2  2.50        -3.8151   7.0000                                                             
     4  0  0.50        -4.2551   1.0000                                                             
     4  1  1.50        -3.4015   0.0000                                                             
     4  3  2.50        -1.3606   0.0000                                                             
   Description                                                                                      
     l       E           TYP  RCUT    TYP  RCUT                                                     
     2     -3.8151135     23  2.300                                                                 
     2     -5.1756961     23  2.300                                                                 
     0     -4.2550963     23  2.300                                                                 
     0      7.2035603     23  2.300                                                                 
     1     -2.7211652     23  2.300                                                                 
     1     18.4316424     23  2.300                                                                 
  local pseudopotential read in
  partial core-charges read in
  partial kinetic energy density read in
  atomic valenz-charges read in
  non local Contribution for L=           2  read in
    real space projection operators read in
  non local Contribution for L=           2  read in
    real space projection operators read in
  non local Contribution for L=           0  read in
    real space projection operators read in
  non local Contribution for L=           0  read in
    real space projection operators read in
  non local Contribution for L=           1  read in
    real space projection operators read in
  non local Contribution for L=           1  read in
    real space projection operators read in
    PAW grid and wavefunctions read in
 
   number of l-projection  operators is LMAX  =           6
   number of lm-projection operators is LMMAX =          18
 
 POTCAR:    PAW_PBE Cr_pv 02Aug2007               
   VRHFIN =Cr : p6d5s1                                                                              
   LEXCH  = PE                                                                                      
   EATOM  =  1647.9177 eV,  121.1185 Ry                                                             
                                                                                                    
   TITEL  = PAW_PBE Cr_pv 02Aug2007                                                                 
   LULTRA =        F    use ultrasoft PP ?                                                          
   IUNSCR =        1    unscreen: 0-lin 1-nonlin 2-no                                               
   RPACOR =    2.080    partial core radius                                                         
   POMASS =   51.996; ZVAL   =   12.000    mass and valenz                                          
   RCORE  =    2.300    outmost cutoff radius                                                       
   RWIGS  =    2.500; RWIGS  =    1.323    wigner-seitz radius (au A)                               
   ENMAX  =  265.681; ENMIN  =  199.261 eV                                                          
   ICORE  =        3    local potential                                                             
   LCOR   =        T    correct aug charges                                                         
   LPAW   =        T    paw PP                                                                      
   EAUG   =  519.424                                                                                
   DEXC   =    0.000                                                                                
   RMAX   =    2.356    core radius for proj-oper                                                   
   RAUG   =    1.300    factor for augmentation sphere                                              
   RDEP   =    2.447    radius for radial grids                                                     
   RDEPT  =    1.882    core radius for aug-charge                                                  
                                                                                                    
   Atomic configuration                                                                             
    8 entries                                                                                       
     n  l   j            E        occ.                                                              
     1  0  0.50     -5880.4963   2.0000                                                             
     2  0  0.50      -667.0865   2.0000                                                             
     2  1  1.50      -560.6250   6.0000                                                             
     3  0  0.50       -73.9860   2.0000                                                             
     3  1  1.50       -45.4378   6.0000                                                             
     3  2  2.50        -2.9137   5.0000                                                             
     4  0  0.50        -4.0071   1.0000                                                             
     4  3  2.50        -1.3606   0.0000                                                             
   Description                                                                                      
     l       E           TYP  RCUT    TYP  RCUT                                                     
     1    -45.4377911     23  2.000                                                                 
     1      1.3605826     23  2.000                                                                 
     2     -2.9136672     23  2.300                                                                 
     2     -4.2742498     23  2.300                                                                 
     0     -4.0071320     23  2.300                                                                 
     0      9.4498803     23  2.300                                                                 
     3      2.7211652     23  2.300                                                                 
  local pseudopotential read in
  partial core-charges read in
  partial kinetic energy density read in
  atomic valenz-charges read in
  non local Contribution for L=           1  read in
    real space projection operators read in
  non local Contribution for L=           1  read in
    real space projection operators read in
  non local Contribution for L=           2  read in
    real space projection operators read in
  non local Contribution for L=           2  read in
    real space projection operators read in
  non local Contribution for L=           0  read in
    real space projection operators read in
  non local Contribution for L=           0  read in
    real space projection operators read in
    PAW grid and wavefunctions read in
 
   number of l-projection  operators is LMAX  =           6
   number of lm-projection operators is LMMAX =          18
 
 POTCAR:    PAW_PBE Pb_d 06Sep2000                
   VRHFIN =Pb:                                                                                      
   LEXCH  = PE                                                                                      
   EATOM  =  1661.6185 eV,  122.1255 Ry                                                             
                                                                                                    
   TITEL  = PAW_PBE Pb_d 06Sep2000                                                                  
   LULTRA =        F    use ultrasoft PP ?                                                          
   IUNSCR =        1    unscreen: 0-lin 1-nonlin 2-no                                               
   RPACOR =    2.200    partial core radius                                                         
   POMASS =  207.200; ZVAL   =   14.000    mass and valenz                                          
   RCORE  =    2.500    outmost cutoff radius                                                       
   RWIGS  =    3.260; RWIGS  =    1.725    wigner-seitz radius (au A)                               
   ENMAX  =  237.835; ENMIN  =  178.376 eV                                                          
   ICORE  =        3    local potential                                                             
   LCOR   =        T    correct aug charges                                                         
   LPAW   =        T    paw PP                                                                      
   EAUG   =  391.914                                                                                
   DEXC   =    0.000                                                                                
   RMAX   =    2.565    core radius for proj-oper                                                   
   RAUG   =    1.300    factor for augmentation sphere                                              
   RDEP   =    2.643    radius for radial grids                                                     
   RDEPT  =    2.092    core radius for aug-charge                                                  
                                                                                                    
   Atomic configuration                                                                             
   16 entries                                                                                       
     n  l   j            E        occ.                                                              
     1  0  0.50    -88091.8466   2.0000                                                             
     2  0  0.50    -15753.4197   2.0000                                                             
     2  1  1.50    -13508.1797   6.0000                                                             
     3  0  0.50     -3781.7194   2.0000                                                             
     3  1  1.50     -3138.2529   6.0000                                                             
     3  2  2.50     -2483.2977  10.0000                                                             
     4  0  0.50      -856.2895   2.0000                                                             
     4  1  1.50      -645.4942   6.0000                                                             
     4  2  2.50      -401.8768  10.0000                                                             
     4  3  3.50      -132.9059  14.0000                                                             
     5  0  0.50      -144.0950   2.0000                                                             
     5  1  1.50       -85.7879   6.0000                                                             
     5  2  2.50       -21.1769  10.0000                                                             
     6  0  0.50       -12.0372   2.0000                                                             
     6  1  1.50        -3.4971   2.0000                                                             
     5  3  2.50        -2.7212   0.0000                                                             
   Description                                                                                      
     l       E           TYP  RCUT    TYP  RCUT                                                     
     2    -21.1768523     23  2.500                                                                 
     2      1.3605826     23  2.500                                                                 
     0    -12.0371562     23  2.500                                                                 
     0     13.6058260     23  2.500                                                                 
     1     -3.4971339     23  2.500                                                                 
     1     13.6058260     23  2.500                                                                 
     3     -1.3605826      7  2.500                                                                 
  local pseudopotential read in
  partial core-charges read in
  partial kinetic energy density read in
  atomic valenz-charges read in
  non local Contribution for L=           2  read in
    real space projection operators read in
  non local Contribution for L=           2  read in
    real space projection operators read in
  non local Contribution for L=           0  read in
    real space projection operators read in
  non local Contribution for L=           0  read in
    real space projection operators read in
  non local Contribution for L=           1  read in
    real space projection operators read in
  non local Contribution for L=           1  read in
    real space projection operators read in
    PAW grid and wavefunctions read in
 
   number of l-projection  operators is LMAX  =           6
   number of lm-projection operators is LMMAX =          18
 
 Optimization of the real space projectors (new method)

 maximal supplied QI-value         = 16.25
 optimisation between [QCUT,QGAM] = [ 10.73, 21.61] = [ 32.22,130.83] Ry 
 Optimized for a Real-space Cutoff    1.42 Angstroem

   l    n(q)    QCUT    max X(q) W(low)/X(q) W(high)/X(q)  e(spline) 
   2      8    10.726    80.901    0.24E-03    0.41E-03    0.22E-06
   2      8    10.726    75.754    0.24E-03    0.41E-03    0.23E-06
   0      9    10.726    58.752    0.21E-03    0.17E-03    0.42E-07
   0      9    10.726    30.679    0.19E-03    0.16E-03    0.39E-07
   1      9    10.726    17.977    0.20E-03    0.14E-03    0.16E-06
   1      9    10.726    13.559    0.17E-03    0.11E-03    0.13E-06
 Optimization of the real space projectors (new method)

 maximal supplied QI-value         = 16.25
 optimisation between [QCUT,QGAM] = [ 10.73, 21.61] = [ 32.22,130.83] Ry 
 Optimized for a Real-space Cutoff    1.51 Angstroem

   l    n(q)    QCUT    max X(q) W(low)/X(q) W(high)/X(q)  e(spline) 
   1      9    10.726     3.262    0.86E-04    0.42E-04    0.11E-06
   1      9    10.726     5.741    0.19E-03    0.70E-04    0.20E-06
   2      9    10.726    60.438    0.11E-03    0.51E-04    0.13E-06
   2      9    10.726    55.380    0.12E-03    0.51E-04    0.13E-06
   0     10    10.726    80.273    0.42E-04    0.15E-05    0.77E-07
   0     10    10.726    36.654    0.34E-04    0.84E-06    0.69E-07
 Optimization of the real space projectors (new method)

 maximal supplied QI-value         = 15.12
 optimisation between [QCUT,QGAM] = [ 10.73, 21.62] = [ 32.26,130.87] Ry 
 Optimized for a Real-space Cutoff    1.42 Angstroem

   l    n(q)    QCUT    max X(q) W(low)/X(q) W(high)/X(q)  e(spline) 
   2      8    10.734     3.846    0.11E-03    0.12E-04    0.36E-07
   2      8    10.734     8.593    0.24E-03    0.21E-03    0.13E-06
   0      9    10.734    20.082    0.65E-04    0.10E-03    0.71E-07
   0      9    10.734     8.597    0.91E-04    0.14E-03    0.10E-06
   1      9    10.734    33.223    0.24E-03    0.75E-04    0.13E-06
   1      9    10.734    15.899    0.21E-03    0.70E-04    0.12E-06
  PAW_PBE Fe 06Sep2000                  :
 energy of atom  1       EATOM= -594.3153
 kinetic energy error for atom=    0.0034 (will be added to EATOM!!)
  PAW_PBE Cr_pv 02Aug2007               :
 energy of atom  2       EATOM=-1647.9177
 kinetic energy error for atom=    0.0115 (will be added to EATOM!!)
  PAW_PBE Pb_d 06Sep2000                :
 energy of atom  3       EATOM=-1661.6185
 kinetic energy error for atom=    0.0063 (will be added to EATOM!!)
 
 
 POSCAR: Generated by VASPKIT code
  positions in direct lattice
  velocities in cartesian coordinates
 exchange correlation table for  LEXCH =        8
   RHO(1)=    0.500       N(1)  =     2000
   RHO(2)=  100.500       N(2)  =     4000

 VTST: version 4.2, (08/11/21)

 CHAIN: initializing optimizer
 
 OPT: Using VASP Dynamics algorithm
 CHAIN: Read ICHAIN            0
 
 POSCAR: Generated by VASPKIT code
  positions in direct lattice
  velocities in cartesian coordinates
 


--------------------------------------------------------------------------------------------------------


 ion  position               nearest neighbor table
   1  0.001  1.000  0.243-  49 2.45  13 2.45   2 2.45  39 2.45  45 2.46  36 2.47   5 2.47  11 2.49
                            15 2.80  52 2.83   4 2.84  35 2.84   6 2.85  50 2.86
   2  0.166  0.164  0.303-  22 2.39  15 2.41  18 2.43  58 2.44   1 2.45  50 2.46   8 2.49   6 2.49
                            11 2.80   5 2.82  36 2.86   3 2.87   7 2.88
   3  0.503  0.167  0.303-  18 2.41   4 2.46  51 2.46  50 2.47   8 2.47  56 2.50  58 2.52   9 2.83
                            53 2.83   5 2.84  38 2.85   2 2.87  63 2.97
   4  0.668  0.001  0.243-  39 2.44  38 2.45  49 2.45   3 2.46  47 2.46  53 2.47   5 2.47  13 2.48
                            54 2.78  51 2.82  60 2.84   1 2.84  50 2.84  56 2.85
   5  0.836  0.169  0.303-  15 2.40  22 2.44   6 2.46  51 2.46   1 2.47   4 2.47  56 2.52   2 2.82
                            10 2.83   3 2.84  39 2.84  13 2.84  63 2.94
   6  0.000  0.335  0.242-  36 2.46   5 2.46  39 2.46  40 2.46  10 2.46  43 2.47   7 2.48   2 2.49
                            22 2.79  52 2.82  61 2.83  51 2.84   1 2.85   8 2.85
   7  0.167  0.503  0.304-  22 2.39  27 2.42  30 2.43  58 2.43  52 2.45  12 2.45   6 2.48   8 2.49
                            11 2.82  10 2.86   9 2.86  40 2.88   2 2.88
   8  0.335  0.333  0.243-  40 2.45  38 2.45  36 2.46  41 2.46   9 2.46   3 2.47   2 2.49   7 2.49
                            12 2.83  62 2.83  50 2.84  51 2.84   6 2.85  58 2.87
   9  0.503  0.500  0.303-  30 2.40  51 2.46  54 2.46   8 2.46  12 2.47  33 2.47  58 2.54  10 2.81
                            41 2.82   3 2.83  53 2.84   7 2.86  63 2.91
  10  0.832  0.502  0.302-  27 2.39  51 2.45   6 2.46  54 2.46  52 2.48  22 2.50  33 2.51   9 2.81
                            43 2.81  13 2.82   5 2.83   7 2.86  63 2.89
  11  0.169  0.834  0.305-  15 2.45  18 2.46  27 2.46  30 2.46  50 2.46  52 2.48   1 2.49  12 2.49
                            53 2.79   2 2.80   7 2.82  13 2.83  45 2.89
  12  0.333  0.666  0.243-  53 2.42  41 2.45  40 2.45   7 2.45  45 2.46   9 2.47  47 2.47  11 2.49
                            52 2.81  30 2.81   8 2.83  50 2.83  54 2.83  46 2.84
  13  0.837  0.834  0.303-  27 2.40  33 2.41  15 2.41  56 2.42   1 2.45  54 2.45   4 2.48  52 2.48
                            10 2.82  11 2.83  49 2.84   5 2.84  53 2.91
  14  0.001  0.001  0.002-  20 2.46  34 2.46  28 2.46  16 2.48  26 2.83  21 2.83  35 2.84  17 2.85
                            55 2.85
  15  0.997  0.004  0.361-   5 2.40   2 2.41  13 2.41  11 2.45  22 2.80   1 2.80  56 2.81  27 2.89
                            18 2.90
  16  0.168  0.170  0.063-  62 2.44  37 2.45  57 2.45  17 2.46  35 2.46  61 2.46  21 2.46  14 2.48
                            23 2.80  36 2.82  28 2.85  20 2.86  19 2.87
  17  0.335  0.003  0.003-  19 2.45  16 2.46  31 2.46  28 2.46  57 2.81  37 2.82  55 2.83  14 2.85
                            29 2.86
  18  0.337  0.005  0.362-   3 2.41   2 2.43  11 2.46  53 2.46  58 2.78  50 2.81  56 2.83  15 2.90
                            30 2.91
  19  0.505  0.169  0.061-  59 2.43  42 2.45  17 2.45  60 2.46  62 2.47  55 2.47  57 2.48  37 2.48
                            20 2.80  24 2.81  31 2.83  38 2.87  16 2.87
  20  0.833  0.167  0.062-  59 2.43  14 2.46  60 2.46  42 2.46  21 2.46  61 2.46  35 2.46  55 2.50
                            19 2.80  34 2.81  25 2.85  39 2.85  16 2.86
  21  0.000  0.335  0.002-  23 2.46  25 2.46  20 2.46  16 2.46  59 2.81  26 2.83  14 2.83  57 2.83
                            61 2.84
  22  0.008  0.333  0.361-   2 2.39   7 2.39   5 2.44  10 2.50  58 2.70   6 2.79  15 2.80  27 2.81
                            63 2.97
  23  0.168  0.499  0.063-  61 2.45  21 2.46  57 2.46  46 2.46  44 2.46  62 2.47  29 2.47  26 2.48
                            16 2.80  40 2.82  24 2.85  25 2.85  28 2.85
  24  0.501  0.499  0.062-  59 2.43  42 2.45  62 2.45  29 2.46  46 2.46  32 2.47  57 2.47  48 2.47
                            19 2.81  25 2.84  23 2.85  41 2.86  31 2.86
  25  0.834  0.502  0.062-  59 2.42  61 2.45  32 2.45  44 2.46  48 2.46  26 2.46  21 2.46  42 2.46
                            34 2.83  24 2.84  43 2.84  23 2.85  20 2.85
  26  0.001  0.668  0.002-  25 2.46  28 2.46  23 2.48  34 2.48  21 2.83  14 2.83  29 2.84  44 2.85
                            32 2.85
  27  0.995  0.664  0.361-  10 2.39  13 2.40   7 2.42  11 2.46  52 2.80  22 2.81  33 2.83  15 2.89
                            30 2.95
  28  0.168  0.835  0.062-  35 2.45  37 2.46  44 2.46  46 2.46  17 2.46  29 2.46  26 2.46  14 2.46
                            45 2.83  16 2.85  31 2.85  23 2.85  34 2.86
  29  0.334  0.667  0.002-  24 2.46  28 2.46  23 2.47  31 2.47  57 2.83  46 2.83  32 2.84  26 2.84
                            17 2.86
  30  0.341  0.663  0.362-   9 2.40  53 2.43   7 2.43  11 2.46  33 2.76  12 2.81  58 2.81  18 2.91
                            27 2.95
  31  0.502  0.836  0.062-  60 2.44  55 2.45  37 2.45  17 2.46  48 2.46  32 2.47  46 2.47  29 2.47
                            34 2.83  19 2.83  47 2.85  28 2.85  24 2.86
  32  0.668  0.667  0.002-  25 2.45  24 2.47  31 2.47  34 2.47  55 2.80  59 2.81  29 2.84  26 2.85
                            48 2.85
  33  0.664  0.679  0.361-  13 2.41  53 2.41   9 2.47  10 2.51  56 2.64  30 2.76  54 2.79  27 2.83
                            63 2.97
  34  0.833  0.836  0.062-  60 2.44  35 2.46  48 2.46  14 2.46  55 2.46  32 2.47  44 2.47  26 2.48
                            20 2.81  31 2.83  25 2.83  49 2.85  28 2.86
  35  0.001  0.001  0.122-  28 2.45  34 2.46  36 2.46  39 2.46  45 2.46  16 2.46  20 2.46  49 2.47
                            44 2.83  14 2.84  61 2.84   1 2.84  37 2.85  60 2.85
  36  0.167  0.168  0.182-  35 2.46   8 2.46   6 2.46  62 2.46  37 2.46   1 2.47  61 2.47  50 2.49
                            40 2.81  16 2.82  45 2.83  39 2.84  38 2.86   2 2.86
  37  0.335  0.002  0.122-  16 2.45  31 2.45  28 2.46  38 2.46  45 2.46  47 2.46  36 2.46  19 2.48
                            62 2.81  17 2.82  60 2.84  35 2.85  46 2.85  50 2.87
  38  0.502  0.167  0.183-  62 2.44  51 2.44   4 2.45   8 2.45  60 2.46  42 2.46  37 2.46  50 2.47
                            47 2.82  41 2.84  39 2.84   3 2.85  36 2.86  19 2.87
  39  0.834  0.166  0.183-  51 2.44   4 2.44   1 2.45   6 2.46  61 2.46  35 2.46  60 2.46  42 2.47
                            49 2.82  38 2.84  36 2.84   5 2.84  20 2.85  43 2.86
  40  0.170  0.499  0.182-  62 2.45  12 2.45   8 2.45  46 2.45   6 2.46  52 2.46  61 2.46  44 2.47
                            36 2.81  23 2.82  41 2.84  45 2.86   7 2.88  43 2.89
  41  0.502  0.501  0.183-  51 2.45  12 2.45   8 2.46  48 2.46  42 2.46  62 2.47  54 2.47  46 2.47
                            43 2.81   9 2.82  38 2.84  40 2.84  47 2.84  24 2.86
  42  0.667  0.334  0.122-  19 2.45  24 2.45  38 2.46  20 2.46  43 2.46  41 2.46  25 2.46  39 2.47
                            59 2.81  61 2.82  62 2.82  51 2.83  60 2.84  48 2.84
  43  0.831  0.503  0.183-  48 2.44  51 2.45  42 2.46   6 2.47  61 2.47  44 2.47  52 2.47  54 2.48
                            41 2.81  10 2.81  49 2.82  25 2.84  39 2.86  40 2.89
  44  0.001  0.668  0.123-  25 2.46  49 2.46  28 2.46  45 2.46  23 2.46  43 2.47  40 2.47  34 2.47
                            52 2.82  61 2.83  35 2.83  46 2.84  26 2.85  48 2.85
  45  0.169  0.835  0.182-  52 2.45  50 2.46   1 2.46  46 2.46  35 2.46  37 2.46  12 2.46  44 2.46
                            47 2.82  36 2.83  28 2.83  49 2.85  40 2.86  11 2.89
  46  0.334  0.667  0.122-  40 2.45  23 2.46  28 2.46  45 2.46  24 2.46  47 2.46  31 2.47  41 2.47
                            29 2.83  48 2.84  12 2.84  44 2.84  62 2.84  37 2.85
  47  0.500  0.835  0.183-  54 2.43  50 2.44  60 2.45   4 2.46  37 2.46  48 2.46  46 2.46  12 2.47
                            53 2.79  38 2.82  45 2.82  41 2.84  31 2.85  49 2.86
  48  0.667  0.668  0.123-  43 2.44  25 2.46  31 2.46  41 2.46  34 2.46  49 2.46  47 2.46  24 2.47
                            60 2.82  46 2.84  42 2.84  54 2.85  32 2.85  44 2.85
  49  0.835  0.834  0.183-   1 2.45  54 2.45   4 2.45  44 2.46  52 2.46  48 2.46  60 2.46  35 2.47
                            43 2.82  39 2.82  13 2.84  34 2.85  45 2.85  47 2.86
  50  0.336  0.999  0.244-  53 2.38  47 2.44  45 2.46   2 2.46  11 2.46   3 2.47  38 2.47  36 2.49
                            18 2.81  12 2.83   4 2.84   8 2.84   1 2.86  37 2.87
  51  0.668  0.333  0.242-  38 2.44  39 2.44  41 2.45  43 2.45  10 2.45   9 2.46   5 2.46   3 2.46
                             4 2.82  42 2.83   6 2.84   8 2.84  54 2.90  63 3.57
  52  0.004  0.667  0.242-  45 2.45   7 2.45  40 2.46  49 2.46  43 2.47  10 2.48  13 2.48  11 2.48
                            27 2.80  12 2.81  44 2.82   6 2.82   1 2.83  54 2.90
  53  0.496  0.834  0.301-  50 2.38  33 2.41  54 2.41  12 2.42  30 2.43  18 2.46  56 2.46   4 2.47
                            11 2.79  47 2.79   3 2.83   9 2.84  13 2.91
  54  0.665  0.674  0.243-  53 2.41  47 2.43  49 2.45  13 2.45   9 2.46  10 2.46  41 2.47  43 2.48
                             4 2.78  33 2.79  12 2.83  48 2.85  52 2.90  51 2.90
  55  0.666  0.997  0.000-  31 2.45  34 2.46  19 2.47  20 2.50  32 2.80  17 2.83  14 2.85  60 2.89
                            59 2.89
  56  0.668  0.990  0.363-  13 2.42  53 2.46   3 2.50   5 2.52  33 2.64  15 2.81  18 2.83   4 2.85
                            63 3.07
  57  0.332  0.334  0.001-  16 2.45  23 2.46  24 2.47  19 2.48  17 2.81  29 2.83  21 2.83  62 2.86
                            59 2.89
  58  0.325  0.333  0.364-   7 2.43   2 2.44   3 2.52   9 2.54  22 2.70  18 2.78  30 2.81   8 2.87
                            63 3.05
  59  0.670  0.337  0.003-  25 2.42  19 2.43  24 2.43  20 2.43  32 2.81  42 2.81  21 2.81  57 2.89
                            55 2.89
  60  0.667  1.000  0.122-  34 2.44  31 2.44  47 2.45  38 2.46  20 2.46  39 2.46  19 2.46  49 2.46
                            48 2.82   4 2.84  42 2.84  37 2.84  35 2.85  55 2.89
  61  0.998  0.335  0.122-  25 2.45  23 2.45  39 2.46  40 2.46  20 2.46  16 2.46  43 2.47  36 2.47
                            42 2.82  44 2.83   6 2.83  21 2.84  35 2.84  62 2.89
  62  0.337  0.332  0.123-  38 2.44  16 2.44  40 2.45  24 2.45  36 2.46  41 2.47  23 2.47  19 2.47
                            37 2.81  42 2.82   8 2.83  46 2.84  57 2.86  61 2.89
  63  0.672  0.342  0.394-  10 2.89   9 2.91   5 2.94  22 2.97  33 2.97   3 2.97  58 3.05  56 3.07
                            51 3.57
 
  Warning from LATTYP: Monoclinic adjustment (A1->A3, A2->A1, A3->A2)!
  LATTYP: Found a simple monoclinic cell.
 ALAT       =     8.4969997406
 B/A-ratio  =     2.7768624260
 C/A-ratio  =     1.0042014647
 COS(beta)  =    -0.0000611195
  
  Lattice vectors:
  
 A1 = (  -0.0005193328,   8.4969997247,   0.0000000000)
 A2 = (   0.0000000000,   0.0000000000,  23.5949993134)
 A3 = (   8.5326995850,   0.0000000000,   0.0000000000)


Analysis of symmetry for initial positions (statically):
=====================================================================
 Subroutine PRICEL returns:
 Original cell was already a primitive cell.
 

 Routine SETGRP: Setting up the symmetry group for a 
 simple monoclinic supercell.


 Subroutine GETGRP returns: Found  1 space group operations
 (whereof  1 operations were pure point group operations)
 out of a pool of  4 trial point group operations.


The static configuration has the point symmetry C_1 .


Analysis of symmetry for dynamics (positions and initial velocities):
=====================================================================
 Subroutine PRICEL returns:
 Original cell was already a primitive cell.
 

 Routine SETGRP: Setting up the symmetry group for a 
 simple monoclinic supercell.


 Subroutine GETGRP returns: Found  1 space group operations
 (whereof  1 operations were pure point group operations)
 out of a pool of  4 trial point group operations.


The dynamic configuration has the point symmetry C_1 .


Analysis of constrained symmetry for selective dynamics:
=====================================================================
 Subroutine PRICEL returns:
 Original cell was already a primitive cell.
 

 Routine SETGRP: Setting up the symmetry group for a 
 simple monoclinic supercell.


 Subroutine GETGRP returns: Found  1 space group operations
 (whereof  1 operations were pure point group operations)
 out of a pool of  4 trial point group operations.


The constrained configuration has the point symmetry C_1 .


Analysis of structural, dynamic, and magnetic symmetry:
=====================================================================
 Subroutine PRICEL returns:
 Original cell was already a primitive cell.
 

 Routine SETGRP: Setting up the symmetry group for a 
 simple monoclinic supercell.


 Subroutine GETGRP returns: Found  1 space group operations
 (whereof  1 operations were pure point group operations)
 out of a pool of  4 trial point group operations.


The overall configuration has the point symmetry C_1 .


 Subroutine INISYM returns: Found  1 space group operations
 (whereof  1 operations are pure point group operations),
 and found     1 'primitive' translations


----------------------------------------------------------------------------------------

                                     Primitive cell                                     

  volume of cell :    1710.6928

  direct lattice vectors                    reciprocal lattice vectors
     8.532699585  0.000000000  0.000000000     0.117196204  0.000007163  0.000000000
    -0.000519333  8.496999725  0.000000000     0.000000000  0.117688600  0.000000000
     0.000000000  0.000000000 23.594999313     0.000000000  0.000000000  0.042381862

  length of vectors
     8.532699585  8.496999741 23.594999313     0.117196204  0.117688600  0.042381862

  position of ions in fractional coordinates (direct lattice)
     0.000860000  0.999930000  0.242710000
     0.166293615  0.164311835  0.303486325
     0.502589831  0.167011504  0.303486109
     0.668220000  0.001070000  0.242720000
     0.835562247  0.168821008  0.303317600
     0.000440000  0.334970000  0.242400000
     0.167334776  0.502765111  0.303946951
     0.334690000  0.333050000  0.242670000
     0.502882177  0.499838136  0.302723446
     0.832122089  0.502269551  0.302050477
     0.168578021  0.834239259  0.304834945
     0.333420000  0.665550000  0.242610000
     0.836914212  0.834139719  0.303324689
     0.000640000  0.001190000  0.001990000
     0.997215991  0.003948191  0.361408747
     0.168430000  0.169620000  0.062690000
     0.334600000  0.002970000  0.002540000
     0.337013118  0.005367942  0.362497808
     0.504630000  0.168500000  0.061200000
     0.832720000  0.166700000  0.061930000
     0.000040000  0.334670000  0.002130000
     0.007925537  0.333196277  0.360750145
     0.167570000  0.498950000  0.062680000
     0.500990000  0.498960000  0.062060000
     0.833930000  0.502340000  0.062350000
     0.001210000  0.667850000  0.001880000
     0.994631894  0.663742267  0.360643849
     0.167920000  0.834620000  0.062280000
     0.334370000  0.666640000  0.002250000
     0.340528821  0.663337203  0.361603675
     0.501520000  0.835630000  0.062170000
     0.667530000  0.667050000  0.001750000
     0.663739578  0.679260949  0.361309245
     0.832930000  0.835840000  0.062350000
     0.001210000  0.000980000  0.122250000
     0.167000000  0.168110000  0.182390000
     0.334700000  0.002270000  0.121920000
     0.501740000  0.167160000  0.182630000
     0.834210000  0.166390000  0.182830000
     0.169640000  0.498680000  0.182090000
     0.502190000  0.500810000  0.183170000
     0.667410000  0.333950000  0.122330000
     0.831340000  0.502530000  0.182830000
     0.001320000  0.667950000  0.122530000
     0.168980000  0.835090000  0.182430000
     0.334460000  0.667030000  0.122230000
     0.499710000  0.835380000  0.182780000
     0.666980000  0.668400000  0.122590000
     0.834880000  0.834030000  0.182940000
     0.335580000  0.998630000  0.243530000
     0.668010000  0.332620000  0.242290000
     0.004480000  0.667390000  0.242170000
     0.495567346  0.834049135  0.301203769
     0.665210000  0.673510000  0.243270000
     0.666200000  0.996800000  0.000000000
     0.667875320  0.989785789  0.363381366
     0.332130000  0.333860000  0.001350000
     0.324554527  0.332563903  0.364350652
     0.670400000  0.336730000  0.003210000
     0.667280000  0.999980000  0.122460000
     0.998060000  0.334950000  0.122350000
     0.336750000  0.332380000  0.122610000
     0.672411742  0.341773777  0.393574482

  ion indices of the primitive-cell ions
   primitive index   ion index
                 1           1
                 2           2
                 3           3
                 4           4
                 5           5
                 6           6
                 7           7
                 8           8
                 9           9
                10          10
                11          11
                12          12
                13          13
                14          14
                15          15
                16          16
                17          17
                18          18
                19          19
                20          20
                21          21
                22          22
                23          23
                24          24
                25          25
                26          26
                27          27
                28          28
                29          29
                30          30
                31          31
                32          32
                33          33
                34          34
                35          35
                36          36
                37          37
                38          38
                39          39
                40          40
                41          41
                42          42
                43          43
                44          44
                45          45
                46          46
                47          47
                48          48
                49          49
                50          50
                51          51
                52          52
                53          53
                54          54
                55          55
                56          56
                57          57
                58          58
                59          59
                60          60
                61          61
                62          62
                63          63

----------------------------------------------------------------------------------------

 
 
 KPOINTS: K-Spacing Value to Generate K-Mesh: 0.03

Automatic generation of k-mesh.
 Grid dimensions read from file:
 generate k-points for:    4    4    1

 Generating k-lattice:

  Cartesian coordinates                     Fractional coordinates (reciprocal lattice)
     0.029299051  0.000001791  0.000000000     0.250000000  0.000000000  0.000000000
     0.000000000  0.029422150  0.000000000     0.000000000  0.250000000  0.000000000
     0.000000000  0.000000000  0.042381862     0.000000000  0.000000000  1.000000000

  Length of vectors
     0.029299051  0.029422150  0.042381862

  Shift w.r.t. Gamma in fractional coordinates (k-lattice)
     0.000000000  0.000000000  0.000000000

 TETIRR: Found     48 inequivalent tetrahedra from       96
 
 Subroutine IBZKPT returns following result:
 ===========================================
 
 Found     10 irreducible k-points:
 
 Following reciprocal coordinates:
            Coordinates               Weight
  0.000000  0.000000  0.000000      1.000000
  0.250000  0.000000  0.000000      2.000000
  0.500000  0.000000  0.000000      1.000000
  0.000000  0.250000  0.000000      2.000000
  0.250000  0.250000  0.000000      2.000000
  0.500000  0.250000  0.000000      2.000000
 -0.250000  0.250000  0.000000      2.000000
  0.000000  0.500000  0.000000      1.000000
  0.250000  0.500000  0.000000      2.000000
  0.500000  0.500000  0.000000      1.000000
 
 Following cartesian coordinates:
            Coordinates               Weight
  0.000000  0.000000  0.000000      1.000000
  0.029299  0.000002  0.000000      2.000000
  0.058598  0.000004  0.000000      1.000000
  0.000000  0.029422  0.000000      2.000000
  0.029299  0.029424  0.000000      2.000000
  0.058598  0.029426  0.000000      2.000000
 -0.029299  0.029420  0.000000      2.000000
  0.000000  0.058844  0.000000      1.000000
  0.029299  0.058846  0.000000      2.000000
  0.058598  0.058848  0.000000      1.000000
 


--------------------------------------------------------------------------------------------------------




 Dimension of arrays:
   k-points           NKPTS =     10   k-points in BZ     NKDIM =     10   number of bands    NBANDS=    372
   number of dos      NEDOS =    301   number of ions     NIONS =     63
   non local maximal  LDIM  =      6   non local SUM 2l+1 LMDIM =     18
   total plane-waves  NPLWV = 604800
   max r-space proj   IRMAX =   5137   max aug-charges    IRDMAX=  18968
   dimension x,y,z NGX =    60 NGY =   60 NGZ =  168
   dimension x,y,z NGXF=   120 NGYF=  120 NGZF=  336
   support grid    NGXF=   120 NGYF=  120 NGZF=  336
   ions per type =              49  13   1
   NGX,Y,Z   is equivalent  to a cutoff of  11.69, 11.74, 11.84 a.u.
   NGXF,Y,Z  is equivalent  to a cutoff of  23.38, 23.48, 23.67 a.u.

 SYSTEM =  ni3al                                   
 POSCAR =  Generated by VASPKIT code               

 Startparameter for this run:
   NWRITE =      2    write-flag & timer
   PREC   = accura    normal or accurate (medium, high low for compatibility)
   ISTART =      0    job   : 0-new  1-cont  2-samecut
   ICHARG =      2    charge: 1-file 2-atom 10-const
   ISPIN  =      2    spin polarized calculation?
   LNONCOLLINEAR =      F non collinear calculations
   LSORBIT =      F    spin-orbit coupling
   INIWAV =      1    electr: 0-lowe 1-rand  2-diag
   LASPH  =      F    aspherical Exc in radial PAW
 Electronic Relaxation 1
   ENCUT  =  450.0 eV  33.07 Ry    5.75 a.u.  14.76 14.70 40.81*2*pi/ulx,y,z
   ENINI  =  450.0     initial cutoff
   ENAUG  =  519.4 eV  augmentation charge cutoff
   NELM   =    150;   NELMIN=  2; NELMDL= -5     # of ELM steps 
   EDIFF  = 0.1E-04   stopping-criterion for ELM
   LREAL  =      T    real-space projection
   NLSPLINE    = F    spline interpolate recip. space projectors
   LCOMPAT=      F    compatible to vasp.4.4
   GGA_COMPAT  = T    GGA compatible to vasp.4.4-vasp.4.6
   LMAXPAW     = -100 max onsite density
   LMAXMIX     =    4 max onsite mixed and CHGCAR
   VOSKOWN=      0    Vosko Wilk Nusair interpolation
   ROPT   =   -0.00025  -0.00025  -0.00025
 Ionic relaxation
   EDIFFG = 0.1E-03   stopping-criterion for IOM
   NSW    =      0    number of steps for IOM
   NBLOCK =      1;   KBLOCK =      1    inner block; outer block 
   IBRION =     -1    ionic relax: 0-MD 1-quasi-New 2-CG
   NFREE  =      0    steps in history (QN), initial steepest desc. (CG)
   ISIF   =      2    stress and relaxation
   IWAVPR =     10    prediction:  0-non 1-charg 2-wave 3-comb
   ISYM   =      2    0-nonsym 1-usesym 2-fastsym
   LCORR  =      T    Harris-Foulkes like correction to forces

   POTIM  = 0.5000    time-step for ionic-motion
   TEIN   =    0.0    initial temperature
   TEBEG  =    0.0;   TEEND  =   0.0 temperature during run
   SMASS  =  -3.00    Nose mass-parameter (am)
   estimated Nose-frequenzy (Omega)   =  0.10E-29 period in steps = 0.13E+47 mass=  -0.166E-26a.u.
   SCALEE = 1.0000    scale energy and forces
   NPACO  =    256;   APACO  = 10.0  distance and # of slots for P.C.
   PSTRESS=    0.0 pullay stress

  Mass of Ions in am
   POMASS =  55.85 52.00207.20
  Ionic Valenz
   ZVAL   =   8.00 12.00 14.00
  Atomic Wigner-Seitz radii
   RWIGS  =  -1.00 -1.00 -1.00
  virtual crystal weights 
   VCA    =   1.00  1.00  1.00
   NELECT =     562.0000    total number of electrons
   NUPDOWN=      -1.0000    fix difference up-down

 DOS related values:
   EMIN   =  10.00;   EMAX   =-10.00  energy-range for DOS
   EFERMI =   0.00
   ISMEAR =    -5;   SIGMA  =   0.10  broadening in eV -4-tet -1-fermi 0-gaus

 Electronic relaxation 2 (details)
   IALGO  =     38    algorithm
   LDIAG  =      T    sub-space diagonalisation (order eigenvalues)
   LSUBROT=      F    optimize rotation matrix (better conditioning)
   TURBO    =      0    0=normal 1=particle mesh
   IRESTART =      0    0=no restart 2=restart with 2 vectors
   NREBOOT  =      0    no. of reboots
   NMIN     =      0    reboot dimension
   EREF     =   0.00    reference energy to select bands
   IMIX   =      4    mixing-type and parameters
     AMIX     =   0.05;   BMIX     =  0.00
     AMIX_MAG =   0.20;   BMIX_MAG =  0.00
     AMIN     =   0.01
     WC   =   100.;   INIMIX=   1;  MIXPRE=   1;  MAXMIX= -45

 Intra band minimization:
   WEIMIN = 0.0000     energy-eigenvalue tresh-hold
   EBREAK =  0.67E-08  absolut break condition
   DEPER  =   0.30     relativ break condition  

   TIME   =   0.40     timestep for ELM

  volume/ion in A,a.u.               =      27.15       183.24
  Fermi-wavevector in a.u.,A,eV,Ry     =   1.129613  2.134659 17.361374  1.276025
  Thomas-Fermi vector in A             =   2.266307
 
 Write flags
   LWAVE        =      T    write WAVECAR
   LDOWNSAMPLE  =      F    k-point downsampling of WAVECAR
   LCHARG       =      T    write CHGCAR
   LVTOT        =      F    write LOCPOT, total local potential
   LVHAR        =      F    write LOCPOT, Hartree potential only
   LELF         =      T    write electronic localiz. function (ELF)
   LORBIT       =      0    0 simple, 1 ext, 2 COOP (PROOUT), +10 PAW based schemes


 Dipole corrections
   LMONO  =      F    monopole corrections only (constant potential shift)
   LDIPOL =      T    correct potential (dipole corrections)
   IDIPOL =      3    1-x, 2-y, 3-z, 4-all directions 
   EPSILON=  1.0000000 bulk dielectric constant

 Exchange correlation treatment:
   GGA     =    --    GGA type
   LEXCH   =     8    internal setting for exchange type
   LIBXC   =     F    Libxc                    
   VOSKOWN =     0    Vosko Wilk Nusair interpolation
   LHFCALC =     F    Hartree Fock is set to
   LHFONE  =     F    Hartree Fock one center treatment
   AEXX    =    0.0000 exact exchange contribution

 Linear response parameters
   LEPSILON=     F    determine dielectric tensor
   LRPA    =     F    only Hartree local field effects (RPA)
   LNABLA  =     F    use nabla operator in PAW spheres
   LVEL    =     F    velocity operator in full k-point grid
   CSHIFT  =0.1000    complex shift for real part using Kramers Kronig
   OMEGAMAX=  -1.0    maximum frequency
   DEG_THRESHOLD= 0.2000000E-02 threshold for treating states as degnerate
   RTIME   =   -0.100 relaxation time in fs
  (WPLASMAI=    0.000 imaginary part of plasma frequency in eV, 0.658/RTIME)
   DFIELD  = 0.0000000 0.0000000 0.0000000 field for delta impulse in time
 
  Optional k-point grid parameters
   LKPOINTS_OPT  =     F    use optional k-point grid
   KPOINTS_OPT_MODE=     1    mode for optional k-point grid
 
 Orbital magnetization related:
   ORBITALMAG=     F  switch on orbital magnetization
   LCHIMAG   =     F  perturbation theory with respect to B field
   DQ        =  0.001000  dq finite difference perturbation B field
   LLRAUG    =     F  two centre corrections for induced B field



--------------------------------------------------------------------------------------------------------


 Static calculation
 charge density and potential will be updated during run
 spin polarized calculation
 Variant of blocked Davidson
 Davidson routine will perform the subspace rotation
 perform sub-space diagonalisation
    after iterative eigenvector-optimisation
 modified Broyden-mixing scheme, WC =      100.0
 initial mixing is a Kerker type mixing with AMIX =  0.0500 and BMIX =      0.0001
 Hartree-type preconditioning will be used
 using additional bands           91
 real space projection scheme for non local part
 use partial core corrections
 calculate Harris-corrections to forces 
   (improved forces if not selfconsistent)
 use gradient corrections 
 use of overlap-Matrix (Vanderbilt PP)
 Fermi weights with tetrahedron method with Bloechl corrections


--------------------------------------------------------------------------------------------------------


  energy-cutoff  :      450.00
  volume of cell :     1710.69
      direct lattice vectors                 reciprocal lattice vectors
     8.532699585  0.000000000  0.000000000     0.117196204  0.000007163  0.000000000
    -0.000519333  8.496999725  0.000000000     0.000000000  0.117688600  0.000000000
     0.000000000  0.000000000 23.594999313     0.000000000  0.000000000  0.042381862

  length of vectors
     8.532699585  8.496999741 23.594999313     0.117196204  0.117688600  0.042381862


 
 k-points in units of 2pi/SCALE and weight: K-Spacing Value to Generate K-Mesh: 0.03
   0.00000000  0.00000000  0.00000000       0.062
   0.02929905  0.00000179  0.00000000       0.125
   0.05859810  0.00000358  0.00000000       0.062
   0.00000000  0.02942215  0.00000000       0.125
   0.02929905  0.02942394  0.00000000       0.125
   0.05859810  0.02942573  0.00000000       0.125
  -0.02929905  0.02942036  0.00000000       0.125
   0.00000000  0.05884430  0.00000000       0.062
   0.02929905  0.05884609  0.00000000       0.125
   0.05859810  0.05884788  0.00000000       0.062
 
 k-points in reciprocal lattice and weights: K-Spacing Value to Generate K-Mesh: 0.03
   0.00000000  0.00000000  0.00000000       0.062
   0.25000000  0.00000000  0.00000000       0.125
   0.50000000  0.00000000  0.00000000       0.062
   0.00000000  0.25000000  0.00000000       0.125
   0.25000000  0.25000000  0.00000000       0.125
   0.50000000  0.25000000  0.00000000       0.125
  -0.25000000  0.25000000  0.00000000       0.125
   0.00000000  0.50000000  0.00000000       0.062
   0.25000000  0.50000000  0.00000000       0.125
   0.50000000  0.50000000  0.00000000       0.062
 
 position of ions in fractional coordinates (direct lattice) 
   0.00086000  0.99993000  0.24271000
   0.16629362  0.16431183  0.30348632
   0.50258983  0.16701150  0.30348611
   0.66822000  0.00107000  0.24272000
   0.83556225  0.16882101  0.30331760
   0.00044000  0.33497000  0.24240000
   0.16733478  0.50276511  0.30394695
   0.33469000  0.33305000  0.24267000
   0.50288218  0.49983814  0.30272345
   0.83212209  0.50226955  0.30205048
   0.16857802  0.83423926  0.30483494
   0.33342000  0.66555000  0.24261000
   0.83691421  0.83413972  0.30332469
   0.00064000  0.00119000  0.00199000
   0.99721599  0.00394819  0.36140875
   0.16843000  0.16962000  0.06269000
   0.33460000  0.00297000  0.00254000
   0.33701312  0.00536794  0.36249781
   0.50463000  0.16850000  0.06120000
   0.83272000  0.16670000  0.06193000
   0.00004000  0.33467000  0.00213000
   0.00792554  0.33319628  0.36075015
   0.16757000  0.49895000  0.06268000
   0.50099000  0.49896000  0.06206000
   0.83393000  0.50234000  0.06235000
   0.00121000  0.66785000  0.00188000
   0.99463189  0.66374227  0.36064385
   0.16792000  0.83462000  0.06228000
   0.33437000  0.66664000  0.00225000
   0.34052882  0.66333720  0.36160367
   0.50152000  0.83563000  0.06217000
   0.66753000  0.66705000  0.00175000
   0.66373958  0.67926095  0.36130925
   0.83293000  0.83584000  0.06235000
   0.00121000  0.00098000  0.12225000
   0.16700000  0.16811000  0.18239000
   0.33470000  0.00227000  0.12192000
   0.50174000  0.16716000  0.18263000
   0.83421000  0.16639000  0.18283000
   0.16964000  0.49868000  0.18209000
   0.50219000  0.50081000  0.18317000
   0.66741000  0.33395000  0.12233000
   0.83134000  0.50253000  0.18283000
   0.00132000  0.66795000  0.12253000
   0.16898000  0.83509000  0.18243000
   0.33446000  0.66703000  0.12223000
   0.49971000  0.83538000  0.18278000
   0.66698000  0.66840000  0.12259000
   0.83488000  0.83403000  0.18294000
   0.33558000  0.99863000  0.24353000
   0.66801000  0.33262000  0.24229000
   0.00448000  0.66739000  0.24217000
   0.49556735  0.83404914  0.30120377
   0.66521000  0.67351000  0.24327000
   0.66620000  0.99680000  0.00000000
   0.66787532  0.98978579  0.36338137
   0.33213000  0.33386000  0.00135000
   0.32455453  0.33256390  0.36435065
   0.67040000  0.33673000  0.00321000
   0.66728000  0.99998000  0.12246000
   0.99806000  0.33495000  0.12235000
   0.33675000  0.33238000  0.12261000
   0.67241174  0.34177378  0.39357448
 
 position of ions in cartesian coordinates  (Angst):
   0.00681883  8.49640493  5.72674228
   1.41884813  1.39615762  7.16075962
   4.28836131  1.41909670  7.16075454
   5.70171996  0.00909179  5.72697823
   7.12951397  1.43447206  7.15677857
   0.00358043  2.84624000  5.71942783
   1.42755627  4.27199501  7.17162810
   2.85563626  2.82992576  5.72579848
   4.29068296  4.24712450  7.14275949
   7.09998695  4.26778424  7.12688081
   1.43799237  7.08853076  7.19258032
   2.84462705  5.65517817  5.72438278
   7.14070436  7.08768496  7.15694582
   0.00546031  0.01011143  0.04695405
   8.50894242  0.03354778  8.52743913
   1.43707450  1.44126109  1.47917051
   2.85503974  0.02523609  0.05993130
   2.87562890  0.04561140  8.55313554
   4.30576868  1.43174445  1.44401396
   7.10526303  1.41644985  1.46123831
   0.00016750  2.84369090  0.05025735
   0.06745319  2.83116867  8.51189943
   1.42956535  4.23957801  1.47893456
   4.27453804  4.23966298  1.46430566
   7.11541328  4.26838284  1.47114821
   0.00997773  5.67472127  0.04435860
   8.48655045  5.63981786  8.50939138
   1.43237747  7.09176591  1.46949656
   2.85273255  5.66443990  0.05308875
   2.90528564  5.63637603  8.53203846
   4.27888553  7.10034788  1.46690111
   5.69548653  5.66792367  0.04129125
   5.66313766  5.77168010  8.52509139
   7.10670739  7.10213225  1.47114821
   0.01032406  0.00832706  2.88448867
   1.42487353  1.42843062  4.30349192
   2.85589337  0.01928819  2.87670232
   4.28110988  1.42035847  4.30915472
   7.11797691  1.41381578  4.31387372
   1.44722818  4.23728382  4.29641342
   4.28477632  4.25538243  4.32189602
   5.69463560  2.83757306  2.88637627
   7.09331349  4.26999727  4.31387372
   0.01091628  5.67557097  2.89109527
   1.44142189  7.09575950  4.30443572
   2.85350029  5.66775373  2.88401677
   4.26344147  7.09822363  4.31269397
   5.69079285  5.67939462  2.89251097
   7.12334709  7.08675268  4.31646917
   2.86288471  8.48535884  5.74609018
   5.69975591  2.82627205  5.71683238
   0.03787990  5.67081265  5.71400098
   4.22809414  7.08691527  7.10690273
   5.67568732  5.72281428  5.73995548
   5.68396679  8.46980933  0.00000000
   5.69826543  8.41020957  8.57398308
   2.83379213  2.83680833  0.03185325
   2.76915357  2.82579539  8.59685339
   5.72014693  2.86119472  0.07573995
   5.69318046  8.49682978  2.88944362
   8.51597220  2.84607006  2.88684817
   2.87321397  2.82423277  2.89298287
   5.73730989  2.90405169  9.28638964
 


--------------------------------------------------------------------------------------------------------


 k-point   1 :   0.0000 0.0000 0.0000  plane waves:   37053
 k-point   2 :   0.2500 0.0000 0.0000  plane waves:   37082
 k-point   3 :   0.5000 0.0000 0.0000  plane waves:   37122
 k-point   4 :   0.0000 0.2500 0.0000  plane waves:   37091
 k-point   5 :   0.2500 0.2500 0.0000  plane waves:   37070
 k-point   6 :   0.5000 0.2500 0.0000  plane waves:   37050
 k-point   7 :  -0.2500 0.2500 0.0000  plane waves:   37068
 k-point   8 :   0.0000 0.5000 0.0000  plane waves:   37118
 k-point   9 :   0.2500 0.5000 0.0000  plane waves:   37056
 k-point  10 :   0.5000 0.5000 0.0000  plane waves:   37124

 maximum and minimum number of plane-waves per node :     37124    37050

 maximum number of plane-waves:     37124
 maximum index in each direction: 
   IXMAX=   15   IYMAX=   14   IZMAX=   40
   IXMIN=  -15   IYMIN=  -15   IZMIN=  -40


 serial   3D FFT for wavefunctions
 parallel 3D FFT for charge:
    minimum data exchange during FFTs selected (reduces bandwidth)


 total amount of memory used by VASP MPI-rank0  1417598. kBytes
=======================================================================

   base      :      30000. kBytes
   nonlr-proj:      48340. kBytes
   fftplans  :      43220. kBytes
   grid      :     155462. kBytes
   one-center:       1959. kBytes
   wavefun   :    1138617. kBytes
 
     INWAV:  cpu time      0.0001: real time      0.0000
 Broyden mixing: mesh for mixing (old mesh)
   NGX = 29   NGY = 29   NGZ = 81
  (NGX  =120   NGY  =120   NGZ  =336)
  gives a total of  68121 points

 initial charge density was supplied:
 charge density of overlapping atoms calculated
 number of electron     562.0000000 magnetization      63.0000000
 keeping initial charge density in first step


--------------------------------------------------------------------------------------------------------


 Maximum index for non-local projection operator         4950
 Maximum index for augmentation-charges         4547 (set IRDMAX)


--------------------------------------------------------------------------------------------------------


 First call to EWALD:  gamma=   0.148
 Maximum number of real-space cells 4x 4x 2
 Maximum number of reciprocal cells 2x 2x 5

    FEWALD:  cpu time      0.0124: real time      0.0062


--------------------------------------- Iteration      1(   1)  ---------------------------------------


    POTLOK:  cpu time      7.1655: real time      1.4920
    SETDIJ:  cpu time      0.9408: real time      0.1351
     EDDAV:  cpu time    193.9631: real time     27.8899
 BZINTS: Fermi energy:   12.185144;  562.000000 electrons
         Band energy: 0.189128E+04;  BLOECHL correction:   -0.004834
       DOS:  cpu time      0.5817: real time      0.0845
    --------------------------------------------
      LOOP:  cpu time    202.6516: real time     29.6016

 eigenvalue-minimisations  : 15792
 total energy-change (2. order) : 0.5524693E+04  (-0.2380396E+05)
 number of electron     562.0000000 magnetization      63.0000000
 augmentation part      562.0000000 magnetization      63.0000000

 DIPCOR: dipole corrections for dipol
 direction  3 min pos   233,
 dipolmoment           0.000000      0.000000      0.000034 electrons x Angstroem
 Tr[quadrupol]     -7016.469195

 energy correction for charged system         0.000000 eV
 dipol+quadrupol energy correction           -0.000000 eV
 added-field ion interaction          0.000258 eV  (added to PSCEN)


 Free energy of the ion-electron system (eV)
  ---------------------------------------------------
  alpha Z        PSCENC =      1801.24055046
  Ewald energy   TEWEN  =    210413.12978981
  -Hartree energ DENC   =   -260740.32703164
  -exchange      EXHF   =         0.00000000
  -V(xc)+E(xc)   XCENC  =       943.72514492
  PAW double counting   =     45612.52296067   -46602.56091303
  entropy T*S    EENTRO =         0.00000000
  eigenvalues    EBANDS =      1891.28474767
  atomic energy  EATOM  =     52205.67765473
  Solvation  Ediel_sol  =         0.00000000
  ---------------------------------------------------
  free energy    TOTEN  =      5524.69290358 eV

  energy without entropy =     5524.69290358  energy(sigma->0) =     5524.69290358


--------------------------------------------------------------------------------------------------------




--------------------------------------- Iteration      1(   2)  ---------------------------------------


     EDDAV:  cpu time    185.4117: real time     26.6469
 BZINTS: Fermi energy:    2.266012;  562.000000 electrons
         Band energy:-0.370215E+04;  BLOECHL correction:   -0.004696
       DOS:  cpu time      0.5703: real time      0.0821
    --------------------------------------------
      LOOP:  cpu time    185.9819: real time     26.7290

 eigenvalue-minimisations  : 14880
 total energy-change (2. order) :-0.5593440E+04  (-0.5389859E+04)
 number of electron     562.0000000 magnetization      63.0000000
 augmentation part      562.0000000 magnetization      63.0000000

 DIPCOR: dipole corrections for dipol
 direction  3 min pos   233,
 dipolmoment           0.000000      0.000000      0.000034 electrons x Angstroem
 Tr[quadrupol]     -7016.469195

 energy correction for charged system         0.000000 eV
 dipol+quadrupol energy correction           -0.000000 eV
 added-field ion interaction          0.000258 eV  (added to PSCEN)


 Free energy of the ion-electron system (eV)
  ---------------------------------------------------
  alpha Z        PSCENC =      1801.24055046
  Ewald energy   TEWEN  =    210413.12978981
  -Hartree energ DENC   =   -260740.32703164
  -exchange      EXHF   =         0.00000000
  -V(xc)+E(xc)   XCENC  =       943.72514492
  PAW double counting   =     45612.52296067   -46602.56091303
  entropy T*S    EENTRO =         0.00000000
  eigenvalues    EBANDS =     -3702.15478705
  atomic energy  EATOM  =     52205.67765473
  Solvation  Ediel_sol  =         0.00000000
  ---------------------------------------------------
  free energy    TOTEN  =       -68.74663114 eV

  energy without entropy =      -68.74663114  energy(sigma->0) =      -68.74663114


--------------------------------------------------------------------------------------------------------




--------------------------------------- Iteration      1(   3)  ---------------------------------------


     EDDAV:  cpu time    191.0997: real time     27.4374
 BZINTS: Fermi energy:    1.333621;  562.000000 electrons
         Band energy:-0.415695E+04;  BLOECHL correction:   -0.003350
       DOS:  cpu time      0.6886: real time      0.1024
    --------------------------------------------
      LOOP:  cpu time    191.7883: real time     27.5398

 eigenvalue-minimisations  : 15264
 total energy-change (2. order) :-0.4547905E+03  (-0.4024864E+03)
 number of electron     562.0000000 magnetization      63.0000000
 augmentation part      562.0000000 magnetization      63.0000000

 DIPCOR: dipole corrections for dipol
 direction  3 min pos   233,
 dipolmoment           0.000000      0.000000      0.000034 electrons x Angstroem
 Tr[quadrupol]     -7016.469195

 energy correction for charged system         0.000000 eV
 dipol+quadrupol energy correction           -0.000000 eV
 added-field ion interaction          0.000258 eV  (added to PSCEN)


 Free energy of the ion-electron system (eV)
  ---------------------------------------------------
  alpha Z        PSCENC =      1801.24055046
  Ewald energy   TEWEN  =    210413.12978981
  -Hartree energ DENC   =   -260740.32703164
  -exchange      EXHF   =         0.00000000
  -V(xc)+E(xc)   XCENC  =       943.72514492
  PAW double counting   =     45612.52296067   -46602.56091303
  entropy T*S    EENTRO =         0.00000000
  eigenvalues    EBANDS =     -4156.94525514
  atomic energy  EATOM  =     52205.67765473
  Solvation  Ediel_sol  =         0.00000000
  ---------------------------------------------------
  free energy    TOTEN  =      -523.53709923 eV

  energy without entropy =     -523.53709923  energy(sigma->0) =     -523.53709923


--------------------------------------------------------------------------------------------------------




--------------------------------------- Iteration      1(   4)  ---------------------------------------


     EDDAV:  cpu time    290.9013: real time     41.7075
 BZINTS: Fermi energy:    1.189826;  562.000000 electrons
         Band energy:-0.421316E+04;  BLOECHL correction:   -0.004738
       DOS:  cpu time      0.5358: real time      0.0765
    --------------------------------------------
      LOOP:  cpu time    291.4371: real time     41.7841

 eigenvalue-minimisations  : 26016
 total energy-change (2. order) :-0.5621206E+02  (-0.5269861E+02)
 number of electron     562.0000000 magnetization      63.0000000
 augmentation part      562.0000000 magnetization      63.0000000

 DIPCOR: dipole corrections for dipol
 direction  3 min pos   233,
 dipolmoment           0.000000      0.000000      0.000034 electrons x Angstroem
 Tr[quadrupol]     -7016.469195

 energy correction for charged system         0.000000 eV
 dipol+quadrupol energy correction           -0.000000 eV
 added-field ion interaction          0.000258 eV  (added to PSCEN)


 Free energy of the ion-electron system (eV)
  ---------------------------------------------------
  alpha Z        PSCENC =      1801.24055046
  Ewald energy   TEWEN  =    210413.12978981
  -Hartree energ DENC   =   -260740.32703164
  -exchange      EXHF   =         0.00000000
  -V(xc)+E(xc)   XCENC  =       943.72514492
  PAW double counting   =     45612.52296067   -46602.56091303
  entropy T*S    EENTRO =         0.00000000
  eigenvalues    EBANDS =     -4213.15731823
  atomic energy  EATOM  =     52205.67765473
  Solvation  Ediel_sol  =         0.00000000
  ---------------------------------------------------
  free energy    TOTEN  =      -579.74916232 eV

  energy without entropy =     -579.74916232  energy(sigma->0) =     -579.74916232


--------------------------------------------------------------------------------------------------------




--------------------------------------- Iteration      1(   5)  ---------------------------------------


     EDDAV:  cpu time    276.4891: real time     39.6160
 BZINTS: Fermi energy:    1.168280;  562.000000 electrons
         Band energy:-0.421625E+04;  BLOECHL correction:   -0.003715
       DOS:  cpu time      0.5720: real time      0.0826
    CHARGE:  cpu time      1.6291: real time      0.4530
    MIXING:  cpu time      0.1236: real time      0.0183
    --------------------------------------------
      LOOP:  cpu time    278.8143: real time     40.1699

 eigenvalue-minimisations  : 24472
 total energy-change (2. order) :-0.3088327E+01  (-0.2921800E+01)
 number of electron     562.0000234 magnetization      62.0064449
 augmentation part      256.0438056 magnetization      43.7120537

 DIPCOR: dipole corrections for dipol
 direction  3 min pos   233,
 dipolmoment           0.000000      0.000000      0.000034 electrons x Angstroem
 Tr[quadrupol]     -7016.469195

 energy correction for charged system         0.000000 eV
 dipol+quadrupol energy correction           -0.000000 eV
 added-field ion interaction          0.000258 eV  (added to PSCEN)


 Broyden mixing:
  rms(total) = 0.93122E+01    rms(broyden)= 0.93097E+01
  rms(prec ) = 0.10385E+02
  weight for this iteration     100.00

 Free energy of the ion-electron system (eV)
  ---------------------------------------------------
  alpha Z        PSCENC =      1801.24055046
  Ewald energy   TEWEN  =    210413.12978981
  -Hartree energ DENC   =   -260740.32703164
  -exchange      EXHF   =         0.00000000
  -V(xc)+E(xc)   XCENC  =       943.72514492
  PAW double counting   =     45612.52296067   -46602.56091303
  entropy T*S    EENTRO =         0.00000000
  eigenvalues    EBANDS =     -4216.24564515
  atomic energy  EATOM  =     52205.67765473
  Solvation  Ediel_sol  =         0.00000000
  ---------------------------------------------------
  free energy    TOTEN  =      -582.83748924 eV

  energy without entropy =     -582.83748924  energy(sigma->0) =     -582.83748924


--------------------------------------------------------------------------------------------------------




--------------------------------------- Iteration      1(   6)  ---------------------------------------


    POTLOK:  cpu time      7.1280: real time      1.4794
    SETDIJ:  cpu time      0.9482: real time      0.1355
     EDDAV:  cpu time    301.1094: real time     43.2212
 BZINTS: Fermi energy:    2.320019;  562.000000 electrons
         Band energy:-0.362244E+04;  BLOECHL correction:   -0.010307
       DOS:  cpu time      0.5348: real time      0.0770
    CHARGE:  cpu time      1.5520: real time      0.4500
    MIXING:  cpu time      0.1230: real time      0.0176
    --------------------------------------------
      LOOP:  cpu time    311.3955: real time     45.3807

 eigenvalue-minimisations  : 27088
 total energy-change (2. order) :-0.1251387E+03  (-0.2957730E+02)
 number of electron     562.0000232 magnetization      60.3162816
 augmentation part      255.8772118 magnetization      52.0231109

 DIPCOR: dipole corrections for dipol
 direction  3 min pos   234,
 dipolmoment           0.000000      0.000000      1.291400 electrons x Angstroem
 Tr[quadrupol]     -7040.364514

 energy correction for charged system         0.000000 eV
 dipol+quadrupol energy correction           -0.088204 eV
 added-field ion interaction         15.066834 eV  (added to PSCEN)


 Broyden mixing:
  rms(total) = 0.15014E+02    rms(broyden)= 0.15013E+02
  rms(prec ) = 0.19890E+02
  weight for this iteration     100.00

 eigenvalues of (default mixing * dielectric matrix)
  average eigenvalue GAMMA=   0.2622
  0.2622

 Free energy of the ion-electron system (eV)
  ---------------------------------------------------
  alpha Z        PSCENC =      1816.21892221
  Ewald energy   TEWEN  =    210413.12978981
  -Hartree energ DENC   =   -261480.24148208
  -exchange      EXHF   =         0.00000000
  -V(xc)+E(xc)   XCENC  =       935.95866261
  PAW double counting   =     45906.04433399   -46882.32292160
  entropy T*S    EENTRO =         0.00000000
  eigenvalues    EBANDS =     -3622.44113798
  atomic energy  EATOM  =     52205.67765473
  Solvation  Ediel_sol  =         0.00000000
  ---------------------------------------------------
  free energy    TOTEN  =      -707.97617831 eV

  energy without entropy =     -707.97617831  energy(sigma->0) =     -707.97617831


--------------------------------------------------------------------------------------------------------




--------------------------------------- Iteration      1(   7)  ---------------------------------------


    POTLOK:  cpu time      7.2233: real time      1.4909
    SETDIJ:  cpu time      0.9447: real time      0.1350
     EDDAV:  cpu time    305.2194: real time     43.8439
 BZINTS: Fermi energy:    1.710718;  562.000000 electrons
         Band energy:-0.403111E+04;  BLOECHL correction:   -0.001931
       DOS:  cpu time      0.5085: real time      0.0727
    CHARGE:  cpu time      1.5259: real time      0.4473
    MIXING:  cpu time      0.1178: real time      0.0168
    --------------------------------------------
      LOOP:  cpu time    315.5396: real time     46.0065

 eigenvalue-minimisations  : 27680
 total energy-change (2. order) : 0.3183147E+02  (-0.3014278E+02)
 number of electron     562.0000155 magnetization      59.1964054
 augmentation part      259.9381923 magnetization      51.5752942

 DIPCOR: dipole corrections for dipol
 direction  3 min pos   235,
 dipolmoment           0.000000      0.000000     -1.543210 electrons x Angstroem
 Tr[quadrupol]     -7027.682674

 energy correction for charged system         0.000000 eV
 dipol+quadrupol energy correction           -0.125955 eV
 added-field ion interaction        -24.446969 eV  (added to PSCEN)


 Broyden mixing:
  rms(total) = 0.14463E+02    rms(broyden)= 0.14462E+02
  rms(prec ) = 0.22064E+02
  weight for this iteration     100.00

 eigenvalues of (default mixing * dielectric matrix)
  average eigenvalue GAMMA=   0.2096
  0.3013  0.1179

 Free energy of the ion-electron system (eV)
  ---------------------------------------------------
  alpha Z        PSCENC =      1776.66736855
  Ewald energy   TEWEN  =    210413.12978981
  -Hartree energ DENC   =   -261001.28430957
  -exchange      EXHF   =         0.00000000
  -V(xc)+E(xc)   XCENC  =       933.75296158
  PAW double counting   =     45988.26004009   -46961.24055156
  entropy T*S    EENTRO =         0.00000000
  eigenvalues    EBANDS =     -4031.10766279
  atomic energy  EATOM  =     52205.67765473
  Solvation  Ediel_sol  =         0.00000000
  ---------------------------------------------------
  free energy    TOTEN  =      -676.14470916 eV

  energy without entropy =     -676.14470916  energy(sigma->0) =     -676.14470916


--------------------------------------------------------------------------------------------------------




--------------------------------------- Iteration      1(   8)  ---------------------------------------


    POTLOK:  cpu time      6.9281: real time      1.4535
    SETDIJ:  cpu time      0.9394: real time      0.1348
     EDDAV:  cpu time    301.4155: real time     43.3299
 BZINTS: Fermi energy:    1.250815;  562.000000 electrons
         Band energy:-0.405103E+04;  BLOECHL correction:   -0.011403
       DOS:  cpu time      0.6333: real time      0.0930
    CHARGE:  cpu time      1.5713: real time      0.4519
    MIXING:  cpu time      0.1070: real time      0.0153
    --------------------------------------------
      LOOP:  cpu time    311.5945: real time     45.4783

 eigenvalue-minimisations  : 27224
 total energy-change (2. order) : 0.1230970E+03  (-0.1504210E+02)
 number of electron     562.0000242 magnetization      57.4537791
 augmentation part      259.8511059 magnetization      42.9785364

 DIPCOR: dipole corrections for dipol
 direction  3 min pos   227,
 dipolmoment           0.000000      0.000000      0.557903 electrons x Angstroem
 Tr[quadrupol]     -7025.283590

 energy correction for charged system         0.000000 eV
 dipol+quadrupol energy correction           -0.016462 eV
 added-field ion interaction         -9.793976 eV  (added to PSCEN)


 Broyden mixing:
  rms(total) = 0.90472E+01    rms(broyden)= 0.90449E+01
  rms(prec ) = 0.11341E+02
  weight for this iteration     100.00

 eigenvalues of (default mixing * dielectric matrix)
  average eigenvalue GAMMA=   0.3786
  0.6586  0.4037  0.0735

 Free energy of the ion-electron system (eV)
  ---------------------------------------------------
  alpha Z        PSCENC =      1791.42985478
  Ewald energy   TEWEN  =    210413.12978981
  -Hartree energ DENC   =   -260873.57776488
  -exchange      EXHF   =         0.00000000
  -V(xc)+E(xc)   XCENC  =       932.45453376
  PAW double counting   =     46048.74639658   -47019.87730479
  entropy T*S    EENTRO =         0.00000000
  eigenvalues    EBANDS =     -4051.03088899
  atomic energy  EATOM  =     52205.67765473
  Solvation  Ediel_sol  =         0.00000000
  ---------------------------------------------------
  free energy    TOTEN  =      -553.04772900 eV

  energy without entropy =     -553.04772900  energy(sigma->0) =     -553.04772900


--------------------------------------------------------------------------------------------------------




--------------------------------------- Iteration      1(   9)  ---------------------------------------


    POTLOK:  cpu time      6.9581: real time      1.4546
    SETDIJ:  cpu time      0.9427: real time      0.1347
     EDDAV:  cpu time    284.8570: real time     40.9478
 BZINTS: Fermi energy:    1.022120;  562.000000 electrons
         Band energy:-0.417267E+04;  BLOECHL correction:   -0.013071
       DOS:  cpu time      0.5700: real time      0.0823
    CHARGE:  cpu time      1.6098: real time      0.4496
    MIXING:  cpu time      0.1140: real time      0.0163
    --------------------------------------------
      LOOP:  cpu time    295.0518: real time     43.0852

 eigenvalue-minimisations  : 25408
 total energy-change (2. order) : 0.2257923E+02  (-0.5969078E+01)
 number of electron     562.0000211 magnetization      56.5618807
 augmentation part      262.9157760 magnetization      38.6655703

 DIPCOR: dipole corrections for dipol
 direction  3 min pos   234,
 dipolmoment           0.000000      0.000000     -0.038584 electrons x Angstroem
 Tr[quadrupol]     -7025.303196

 energy correction for charged system         0.000000 eV
 dipol+quadrupol energy correction           -0.000079 eV
 added-field ion interaction         -0.450159 eV  (added to PSCEN)


 Broyden mixing:
  rms(total) = 0.69318E+01    rms(broyden)= 0.69309E+01
  rms(prec ) = 0.73581E+01
  weight for this iteration     100.00

 eigenvalues of (default mixing * dielectric matrix)
  average eigenvalue GAMMA=   0.5692
  1.5108  0.3453  0.3453  0.0755

 Free energy of the ion-electron system (eV)
  ---------------------------------------------------
  alpha Z        PSCENC =      1800.79005446
  Ewald energy   TEWEN  =    210413.12978981
  -Hartree energ DENC   =   -260741.00940680
  -exchange      EXHF   =         0.00000000
  -V(xc)+E(xc)   XCENC  =       927.06082144
  PAW double counting   =     46279.52043682   -47242.96375143
  entropy T*S    EENTRO =         0.00000000
  eigenvalues    EBANDS =     -4172.67409800
  atomic energy  EATOM  =     52205.67765473
  Solvation  Ediel_sol  =         0.00000000
  ---------------------------------------------------
  free energy    TOTEN  =      -530.46849897 eV

  energy without entropy =     -530.46849897  energy(sigma->0) =     -530.46849897


--------------------------------------------------------------------------------------------------------




--------------------------------------- Iteration      1(  10)  ---------------------------------------


    POTLOK:  cpu time      7.1655: real time      1.4850
    SETDIJ:  cpu time      0.9418: real time      0.1345
     EDDAV:  cpu time    274.3839: real time     39.4121
 BZINTS: Fermi energy:    0.643537;  562.000000 electrons
         Band energy:-0.434883E+04;  BLOECHL correction:   -0.004138
       DOS:  cpu time      0.5091: real time      0.0727
    CHARGE:  cpu time      1.6617: real time      0.4491
    MIXING:  cpu time      0.1262: real time      0.0180
    --------------------------------------------
      LOOP:  cpu time    284.7881: real time     41.5714

 eigenvalue-minimisations  : 24304
 total energy-change (2. order) : 0.1619779E+02  (-0.4386104E+01)
 number of electron     562.0000251 magnetization      55.3565632
 augmentation part      270.1988638 magnetization      36.9169516

 DIPCOR: dipole corrections for dipol
 direction  3 min pos   231,
 dipolmoment           0.000000      0.000000      0.188649 electrons x Angstroem
 Tr[quadrupol]     -7026.155771

 energy correction for charged system         0.000000 eV
[...]
  206        set_dd_paw                            0.081911                            1   3
  207          m_sumb_d                              0.006244                          7   4
  208        strkin                                0.068347                            1   3
  209          m_sumb_d                              0.000267                          1   4
  210        strelo                                0.006146                            1   3
  211          m_sumb_d                              0.000013                          2   4
  212        strnlr                                9.482224                            1   3
  213          rspher_all                            0.518635                          9   4
  214          phaser                                1.493925                         90   4
  215          rpro_isp                              7.181520                         90   4
  216            fftwav_mpi                            0.252905                    16740   5
  217              fftwav                                0.228985                  16740   6
  218                fft3d                                 0.141594                16740   7
  219            rpromu_acc                            6.873124                     4320   5
  220          m_sumb_d                              0.226093                          1   4
  221        fft3d_mpi                             0.270156                           22   3
  222          fftbrc_mpi                            0.249257                         22   4
  223            fftbas_plan_mpi                       0.249231                       22   5
  224              dfftw_execute                         0.067383                     66   6
  225              map_forward                           0.080807                     20   6
  226                map_gather                            0.018628                   10   7
  227                m_alltoallv_z                         0.052848                   10   7
  228                map_scatter                           0.009253                   10   7
  229              map_backward                          0.098545                     24   6
  230                map_gather                            0.010095                   12   7
  231                m_alltoallv_z                         0.066733                   12   7
  232                map_scatter                           0.021622                   12   7
  233        m_sumb_d                              0.000854                            5   3
  234        forhar                                0.093518                            2   3
  235          m_sumb_d                              0.001977                          2   4
  236        strehar                               0.004091                            1   3
  237          m_sumb_d                              0.000179                          1   4
  238        chggra                                0.084691                            1   3
  239          fft3d_mpi                             0.081417                          3   4
  240            fftbrc_mpi                            0.080235                        3   5
  241              fftbas_plan_mpi                       0.080230                      3   6
  242                map_forward                           0.040596                    4   7
  243                  map_gather                            0.000009                  2   8
  244                  m_alltoallv_z                         0.040566                  2   8
  245                  map_scatter                           0.000007                  2   8
  246                map_backward                          0.000021                    2   7
  247                  map_gather                            0.000002                  1   8
  248                  m_alltoallv_z                         0.000013                  1   8
  249                  map_scatter                           0.000002                  1   8
  250          m_sumb_d                              0.000008                          2   4
  251          pothar                                0.000534                          1   4
  252            m_sumb_d                              0.000149                        1   5
  253        brmix                                 0.127556                            1   3
  254          m_sumb_d                              0.000145                          6   4
  255          brpre                                 0.000237                          2   4
  256          setg0                                 0.006304                          1   4
  257          broyd                                 0.115758                          1   4
  258            brget                                 0.009958                      326   5
  259            brsav                                 0.019293                      163   5
  260            m_sumb_d                              0.010494                       47   5
  261        m_bcast_d                             0.000050                            2   3
  262      potlok                                1.452390                              1   2
  263        fft3d_mpi                             0.290153                           26   3
  264          fftbrc_mpi                            0.262262                         26   4
  265            fftbas_plan_mpi                       0.262238                       26   5
  266              dfftw_execute                         0.074165                     78   6
  267              map_forward                           0.095135                     28   6
  268                map_gather                            0.022722                   16   7
  269                m_alltoallv_z                         0.060257                   16   7
  270                map_scatter                           0.012037                   16   7
  271              map_backward                          0.090448                     24   6
  272                map_gather                            0.009461                   12   7
  273                m_alltoallv_z                         0.059765                   12   7
  274                map_scatter                           0.021128                   12   7
  275        m_sumb_d                              0.001071                            8   3
  276        fewald                                0.000088                            2   3
  277          rsp                                   0.000056                          2   4
  278          rcp                                   0.000028                          2   4
  279        pothar                                0.009535                            1   3
  280          m_sumb_d                              0.002012                          1   4
  281        m_bcast_d                             0.003530                            2   3
  282      potlok_metagga                        0.000000                              1   2
  283      set_dd_magatom                        0.000004                              1   2
  284      set_dd_paw                            0.081756                              1   2
  285        m_sumb_d                              0.006185                            7   3
  286      m_bcast_d                             0.000028                              2   2
  287      fftwav_mpi                           20.071071                           5580   2
  288        fftwav                               20.035127                         5580   3
  289          fft3d                                14.178463                       5580   4
  290      densta                                0.077217                              1   2
 
 Flat profile
 ============
 
             routine name                   CPU           calls
 ---------------------------------------------------------------
 eddav                                1022.706051          50
 lapack                                221.372018      195202
 m_sumb_d                              212.809709      598799
 rpromu_acc                             99.525350      154442
 hamiltmu                               85.956478      195202
 total_time                             85.113675           1
 potlok                                 53.519403          47
 newband                                46.035095      196202
 racc0mu_acc                            44.129437      195202
 m_alltoall_d                           39.317417     2800814
 fft3d                                  30.997244     1158419
 orth1                                  24.942670      585626
 raccmu_                                22.002373      195202
 phaser                                 18.804092        1130
 overl_mu                               17.432336      195202
 w1_copy                                12.751259     1156506
 fftwav                                 11.655891      772917
 redis_pw                               11.235091     1065546
 ggemm                                  10.327059      242202
 m_bcast_z                               9.811468      202642
 m_alltoallv_z                           6.745905        1662
 redis_proj                              6.635626     1358068
 overl                                   5.176912      678024
 dfftw_execute                           3.912364        4359
 setdij_                                 3.891778          74
 densta                                  3.827328          51
 set_dd_paw                              3.631105          48
 lincom                                  3.377459        1020
 map_scatter                             2.570850        1662
 augmentation_charge                     2.330865          46
 m_bcast_d                               1.998965      390502
 eccp                                    1.952839       93000
 fft3d_mpi                               1.922535      386958
 kinhamil                                1.798412      385502
 fftext_mpi                              1.769604      385502
 map_gather                              1.536534        1662
 vhamil                                  1.450452      385502
 broyd                                   1.435710          46
 fftwav_mpi                              1.308770      772917
 apply_precond                           1.272036      292502
 force_and_stress                        1.230053           1
 depsum                                  1.116863          46
 elmin                                   1.035985           1
 orthch                                  0.789821           1
 rspher_all                              0.762897          14
 fftbas_plan_mpi                         0.698285        1456
 setup_precond                           0.662762       93000
 init_hip                                0.419729           1
 choleski                                0.357995          20
 pothar                                  0.353133          48
 brgrid                                  0.304269           1
 setg0                                   0.292493          48
 brmix                                   0.289734          46
 soft_charge                             0.259422          46
 proall                                  0.179019           1
 pw_charge                               0.173094       65153
 brget                                   0.158320        5675
 set_charge                              0.154770          46
 w1_projall                              0.136930      148202
 brsav                                   0.114435        1386
 forhar                                  0.091541           2
 rpro_isp                                0.084088         130
 truncate_high_frequency_w1              0.071522      478502
 strkin                                  0.068080           1
 strnlr                                  0.062051           1
 forloc                                  0.046773           1
 stufak                                  0.043461           1
 fft_gq                                  0.034518          46
 fornlr                                  0.029133           1
 inisym                                  0.011846           1
 brpre                                   0.011349          92
 rsp                                     0.006822          95
 strelo                                  0.006133           1
 map_backward                            0.005678        1534
 map_forward                             0.005525        1378
 strehar                                 0.003912           1
 chggra                                  0.002732           1
 hip_hipfft_makeplan                     0.002587           6
 fewald                                  0.001709          95
 fftbrc_mpi                              0.001692        1456
 rcp                                     0.001646          95
 set_dd_magatom                          0.000328          48
 vectorpot                               0.000304          47
 fordep                                  0.000220           1
 hip_init_hipblas                        0.000209           1
 crpa_reader                             0.000071           1
 hip_init_rocsolver                      0.000067           1
 potlok_metagga                          0.000027          47
 posmap                                  0.000016           2
 rotate_active_occupied_orbital          0.000007           1
 hip_hipfft_makeplans                    0.000003           3
 redis_pw_over_bands                     0.000000           1
 ---------------------------------------------------------------
  summed up times    2149.07422184944     
 
 Accumulative profile
 ====================
 
             routine name                   CPU           calls
 ---------------------------------------------------------------
 total_time                           2149.074222           1
 elmin                                2011.374320           1
 eddav                                1910.660737          50
 lapack                                221.372018      195202
 m_sumb_d                              212.809709      598799
 hamiltmu                              180.191568      195202
 rpromu_acc                             99.525350      154442
 w1_projall                             89.708439      148202
 raccmu_                                83.564146      195202
 potlok                                 68.584261          47
 newband                                57.000272      196202
 racc0mu_acc                            44.129437      195202
 m_alltoall_d                           39.317417     2800814
 fftwav_mpi                             38.534497      772917
 fftwav                                 37.225728      772917
 redis_pw                               31.194564     1065546
 fft3d                                  30.997244     1158419
 redis_proj                             25.993571     1358068
 orth1                                  24.942670      585626
 fft3d_mpi                              22.826774      386958
 set_charge                             20.593895          46
 phaser                                 18.804092        1130
 overl_mu                               17.432336      195202
 force_and_stress                       16.540487           1
 soft_charge                            15.791007          46
 fftbrc_mpi                             15.476832        1456
 fftbas_plan_mpi                        15.475140        1456
 w1_copy                                12.751259     1156506
 rpro_isp                               10.763535         130
 ggemm                                  10.327059      242202
 m_bcast_z                               9.811468      202642
 strnlr                                  9.482224           1
 kinhamil                                9.220492      385502
 fftext_mpi                              7.422081      385502
 m_alltoallv_z                           6.745905        1662
 map_backward                            6.164413        1534
 overl                                   5.176912      678024
 orthch                                  5.128335           1
 map_forward                             4.700079        1378
 setdij_                                 3.990531          74
 set_dd_paw                              3.918124          48
 dfftw_execute                           3.912364        4359
 densta                                  3.827328          51
 augmentation_charge                     3.476679          46
 lincom                                  3.377459        1020
 fornlr                                  3.157312           1
 map_scatter                             2.570850        1662
 brmix                                   2.570437          46
 m_bcast_d                               1.998965      390502
 broyd                                   1.954125          46
 eccp                                    1.952839       93000
 map_gather                              1.536534        1662
 proall                                  1.475533           1
 vhamil                                  1.450452      385502
 apply_precond                           1.272036      292502
 depsum                                  1.171440          46
 rspher_all                              0.762897          14
 setup_precond                           0.662762       93000
 fft_gq                                  0.642147          46
 init_hip                                0.419729           1
 pothar                                  0.399581          48
 fordep                                  0.380759           1
 choleski                                0.357995          20
 brgrid                                  0.304269           1
 setg0                                   0.292493          48
 pw_charge                               0.173094       65153
 brget                                   0.158320        5675
 brsav                                   0.114435        1386
 forhar                                  0.093518           2
 chggra                                  0.084691           1
 truncate_high_frequency_w1              0.071522      478502
 strkin                                  0.068347           1
 forloc                                  0.047822           1
 stufak                                  0.043461           1
 inisym                                  0.011862           1
 brpre                                   0.011349          92
 fewald                                  0.010302          95
 rsp                                     0.006822          95
 strelo                                  0.006146           1
 strehar                                 0.004091           1
 hip_hipfft_makeplans                    0.002590           3
 hip_hipfft_makeplan                     0.002587           6
 rcp                                     0.001646          95
 set_dd_magatom                          0.000328          48
 vectorpot                               0.000304          47
 hip_init_hipblas                        0.000209           1
 crpa_reader                             0.000071           1
 hip_init_rocsolver                      0.000067           1
 potlok_metagga                          0.000027          47
 posmap                                  0.000016           2
 rotate_active_occupied_orbital          0.000007           1
 redis_pw_over_bands                     0.000000           1
 ---------------------------------------------------------------
 
Profiling took   4.308944  1.681767  0.002856  0.002716 seconds
Profiling took   2.429199 seconds
