<?xml version="1.0" encoding="ISO-8859-1"?>
<modeling>
 <generator>
  <i name="program" type="string">vasp </i>
  <i name="version" type="string">6.3.2  </i>
  <i name="subversion" type="string">27Jun22 (build Mar 15 2023 15:45:48) complex                          parallel </i>
  <i name="platform" type="string">LinuxIFC </i>
  <i name="date" type="string">2025 02 10 </i>
  <i name="time" type="string">23:36:36 </i>
 </generator>
 <incar>
  <i type="string" name="SYSTEM">ni3al</i>
  <i type="int" name="ISTART">     0</i>
  <i type="string" name="PREC">Accurate</i>
  <i type="string" name="ALGO">Normal</i>
  <i type="int" name="ISPIN">     2</i>
  <i type="int" name="IMIX">     4</i>
  <i name="AMIX">      0.05000000</i>
  <i name="BMIX">      0.00010000</i>
  <i name="AMIN">      0.01000000</i>
  <i type="int" name="ICHARG">     2</i>
  <i type="int" name="NELM">   150</i>
  <i type="int" name="IBRION">    -1</i>
  <i name="EDIFF">      0.00001000</i>
  <i type="int" name="NSW">     0</i>
  <i type="int" name="ISIF">     2</i>
  <i name="ENCUT">    450.00000000</i>
  <i type="string" name="LREAL">Auto</i>
  <i type="int" name="ISMEAR">    -5</i>
  <i name="SIGMA">      0.10000000</i>
  <i type="int" name="LMAXMIX">     4</i>
  <i type="logical" name="LWAVE"> T  </i>
  <i type="logical" name="LCHARG"> T  </i>
  <i type="logical" name="LELF"> T  </i>
  <i type="logical" name="LDIPOL"> T  </i>
  <i type="int" name="IDIPOL">     3</i>
 </incar>
 <primitive_cell>
  <structure name="primitive_cell" >
   <crystal>
    <varray name="basis" >
     <v>       8.53269958       0.00000000       0.00000000 </v>
     <v>      -0.00051933       8.49699972       0.00000000 </v>
     <v>       0.00000000       0.00000000      23.59499931 </v>
    </varray>
    <i name="volume">   1710.69280467 </i>
    <varray name="rec_basis" >
     <v>       0.11719620       0.00000716       0.00000000 </v>
     <v>       0.00000000       0.11768860       0.00000000 </v>
     <v>       0.00000000       0.00000000       0.04238186 </v>
    </varray>
   </crystal>
   <varray name="positions" >
    <v>       0.00086000       0.99993000       0.24271000 </v>
    <v>       0.16629362       0.16431183       0.30348632 </v>
    <v>       0.50258983       0.16701150       0.30348611 </v>
    <v>       0.66822000       0.00107000       0.24272000 </v>
    <v>       0.83556225       0.16882101       0.30331760 </v>
    <v>       0.00044000       0.33497000       0.24240000 </v>
    <v>       0.16733478       0.50276511       0.30394695 </v>
    <v>       0.33469000       0.33305000       0.24267000 </v>
    <v>       0.50288218       0.49983814       0.30272345 </v>
    <v>       0.83212209       0.50226955       0.30205048 </v>
    <v>       0.16857802       0.83423926       0.30483494 </v>
    <v>       0.33342000       0.66555000       0.24261000 </v>
    <v>       0.83691421       0.83413972       0.30332469 </v>
    <v>       0.00064000       0.00119000       0.00199000 </v>
    <v>       0.99721599       0.00394819       0.36140875 </v>
    <v>       0.16843000       0.16962000       0.06269000 </v>
    <v>       0.33460000       0.00297000       0.00254000 </v>
    <v>       0.33701312       0.00536794       0.36249781 </v>
    <v>       0.50463000       0.16850000       0.06120000 </v>
    <v>       0.83272000       0.16670000       0.06193000 </v>
    <v>       0.00004000       0.33467000       0.00213000 </v>
    <v>       0.00792554       0.33319628       0.36075015 </v>
    <v>       0.16757000       0.49895000       0.06268000 </v>
    <v>       0.50099000       0.49896000       0.06206000 </v>
    <v>       0.83393000       0.50234000       0.06235000 </v>
    <v>       0.00121000       0.66785000       0.00188000 </v>
    <v>       0.99463189       0.66374227       0.36064385 </v>
    <v>       0.16792000       0.83462000       0.06228000 </v>
    <v>       0.33437000       0.66664000       0.00225000 </v>
    <v>       0.34052882       0.66333720       0.36160367 </v>
    <v>       0.50152000       0.83563000       0.06217000 </v>
    <v>       0.66753000       0.66705000       0.00175000 </v>
    <v>       0.66373958       0.67926095       0.36130925 </v>
    <v>       0.83293000       0.83584000       0.06235000 </v>
    <v>       0.00121000       0.00098000       0.12225000 </v>
    <v>       0.16700000       0.16811000       0.18239000 </v>
    <v>       0.33470000       0.00227000       0.12192000 </v>
    <v>       0.50174000       0.16716000       0.18263000 </v>
    <v>       0.83421000       0.16639000       0.18283000 </v>
    <v>       0.16964000       0.49868000       0.18209000 </v>
    <v>       0.50219000       0.50081000       0.18317000 </v>
    <v>       0.66741000       0.33395000       0.12233000 </v>
    <v>       0.83134000       0.50253000       0.18283000 </v>
    <v>       0.00132000       0.66795000       0.12253000 </v>
    <v>       0.16898000       0.83509000       0.18243000 </v>
    <v>       0.33446000       0.66703000       0.12223000 </v>
    <v>       0.49971000       0.83538000       0.18278000 </v>
    <v>       0.66698000       0.66840000       0.12259000 </v>
    <v>       0.83488000       0.83403000       0.18294000 </v>
    <v>       0.33558000       0.99863000       0.24353000 </v>
    <v>       0.66801000       0.33262000       0.24229000 </v>
    <v>       0.00448000       0.66739000       0.24217000 </v>
    <v>       0.49556735       0.83404914       0.30120377 </v>
    <v>       0.66521000       0.67351000       0.24327000 </v>
    <v>       0.66620000       0.99680000       0.00000000 </v>
    <v>       0.66787532       0.98978579       0.36338137 </v>
    <v>       0.33213000       0.33386000       0.00135000 </v>
    <v>       0.32455453       0.33256390       0.36435065 </v>
    <v>       0.67040000       0.33673000       0.00321000 </v>
    <v>       0.66728000       0.99998000       0.12246000 </v>
    <v>       0.99806000       0.33495000       0.12235000 </v>
    <v>       0.33675000       0.33238000       0.12261000 </v>
    <v>       0.67241174       0.34177378       0.39357448 </v>
   </varray>
  </structure>
  <varray name="primitive_index" >
   <v type="int" >        1 </v>
   <v type="int" >        2 </v>
   <v type="int" >        3 </v>
   <v type="int" >        4 </v>
   <v type="int" >        5 </v>
   <v type="int" >        6 </v>
   <v type="int" >        7 </v>
   <v type="int" >        8 </v>
   <v type="int" >        9 </v>
   <v type="int" >       10 </v>
   <v type="int" >       11 </v>
   <v type="int" >       12 </v>
   <v type="int" >       13 </v>
   <v type="int" >       14 </v>
   <v type="int" >       15 </v>
   <v type="int" >       16 </v>
   <v type="int" >       17 </v>
   <v type="int" >       18 </v>
   <v type="int" >       19 </v>
   <v type="int" >       20 </v>
   <v type="int" >       21 </v>
   <v type="int" >       22 </v>
   <v type="int" >       23 </v>
   <v type="int" >       24 </v>
   <v type="int" >       25 </v>
   <v type="int" >       26 </v>
   <v type="int" >       27 </v>
   <v type="int" >       28 </v>
   <v type="int" >       29 </v>
   <v type="int" >       30 </v>
   <v type="int" >       31 </v>
   <v type="int" >       32 </v>
   <v type="int" >       33 </v>
   <v type="int" >       34 </v>
   <v type="int" >       35 </v>
   <v type="int" >       36 </v>
   <v type="int" >       37 </v>
   <v type="int" >       38 </v>
   <v type="int" >       39 </v>
   <v type="int" >       40 </v>
   <v type="int" >       41 </v>
   <v type="int" >       42 </v>
   <v type="int" >       43 </v>
   <v type="int" >       44 </v>
   <v type="int" >       45 </v>
   <v type="int" >       46 </v>
   <v type="int" >       47 </v>
   <v type="int" >       48 </v>
   <v type="int" >       49 </v>
   <v type="int" >       50 </v>
   <v type="int" >       51 </v>
   <v type="int" >       52 </v>
   <v type="int" >       53 </v>
   <v type="int" >       54 </v>
   <v type="int" >       55 </v>
   <v type="int" >       56 </v>
   <v type="int" >       57 </v>
   <v type="int" >       58 </v>
   <v type="int" >       59 </v>
   <v type="int" >       60 </v>
   <v type="int" >       61 </v>
   <v type="int" >       62 </v>
   <v type="int" >       63 </v>
  </varray>
 </primitive_cell>
 <kpoints>
  <generation param="Gamma">
   <v type="int" name="divisions">       4        4        1 </v>
   <v name="usershift">      0.00000000       0.00000000       0.00000000 </v>
   <v name="genvec1">      0.25000000       0.00000000       0.00000000 </v>
   <v name="genvec2">      0.00000000       0.25000000       0.00000000 </v>
   <v name="genvec3">      0.00000000       0.00000000       1.00000000 </v>
   <v name="shift">      0.00000000       0.00000000       0.00000000 </v>
  </generation>
  <varray name="kpointlist" >
   <v>       0.00000000       0.00000000       0.00000000 </v>
   <v>       0.25000000       0.00000000       0.00000000 </v>
   <v>       0.50000000       0.00000000       0.00000000 </v>
   <v>       0.00000000       0.25000000       0.00000000 </v>
   <v>       0.25000000       0.25000000       0.00000000 </v>
   <v>       0.50000000       0.25000000       0.00000000 </v>
   <v>      -0.25000000       0.25000000       0.00000000 </v>
   <v>       0.00000000       0.50000000       0.00000000 </v>
   <v>       0.25000000       0.50000000       0.00000000 </v>
   <v>       0.50000000       0.50000000       0.00000000 </v>
  </varray>
  <varray name="weights" >
   <v>       0.06250000 </v>
   <v>       0.12500000 </v>
   <v>       0.06250000 </v>
   <v>       0.12500000 </v>
   <v>       0.12500000 </v>
   <v>       0.12500000 </v>
   <v>       0.12500000 </v>
   <v>       0.06250000 </v>
   <v>       0.12500000 </v>
   <v>       0.06250000 </v>
  </varray>
  <varray name="tetrahedronlist"  type="int" >
   <v type="int" >        2        4        8        9        9 </v>
   <v type="int" >        2        4        7        9        9 </v>
   <v type="int" >        2        4        7        7        9 </v>
   <v type="int" >        2        4        8        8        9 </v>
   <v type="int" >        2        4        4        8        9 </v>
   <v type="int" >        2        4        4        7        9 </v>
   <v type="int" >        2        4        5        5        8 </v>
   <v type="int" >        2        5        5        8        9 </v>
   <v type="int" >        2        5        8        9        9 </v>
   <v type="int" >        2        4        4        5        8 </v>
   <v type="int" >        2        4        5        8        8 </v>
   <v type="int" >        2        5        8        8        9 </v>
   <v type="int" >        2        1        2        2        4 </v>
   <v type="int" >        2        2        2        4        5 </v>
   <v type="int" >        2        2        4        5        5 </v>
   <v type="int" >        2        1        1        2        4 </v>
   <v type="int" >        2        1        2        4        4 </v>
   <v type="int" >        2        2        4        4        5 </v>
   <v type="int" >        2        1        4        7        7 </v>
   <v type="int" >        2        1        2        7        7 </v>
   <v type="int" >        2        1        2        2        7 </v>
   <v type="int" >        2        1        4        4        7 </v>
   <v type="int" >        2        1        1        4        7 </v>
   <v type="int" >        2        1        1        2        7 </v>
   <v type="int" >        2        7        9       10       10 </v>
   <v type="int" >        2        6        7       10       10 </v>
   <v type="int" >        2        6        6        7       10 </v>
   <v type="int" >        2        7        9        9       10 </v>
   <v type="int" >        2        7        7        9       10 </v>
   <v type="int" >        2        6        7        7       10 </v>
   <v type="int" >        2        5        6        6        9 </v>
   <v type="int" >        2        6        6        9       10 </v>
   <v type="int" >        2        6        9       10       10 </v>
   <v type="int" >        2        5        5        6        9 </v>
   <v type="int" >        2        5        6        9        9 </v>
   <v type="int" >        2        6        9        9       10 </v>
   <v type="int" >        2        2        3        3        5 </v>
   <v type="int" >        2        3        3        5        6 </v>
   <v type="int" >        2        3        5        6        6 </v>
   <v type="int" >        2        2        2        3        5 </v>
   <v type="int" >        2        2        3        5        5 </v>
   <v type="int" >        2        3        5        5        6 </v>
   <v type="int" >        2        2        6        6        7 </v>
   <v type="int" >        2        2        3        6        6 </v>
   <v type="int" >        2        2        3        3        6 </v>
   <v type="int" >        2        2        6        7        7 </v>
   <v type="int" >        2        2        2        6        7 </v>
   <v type="int" >        2        2        2        3        6 </v>
  </varray>
  <i name="volumeweight">      0.01041667 </i>
 </kpoints>
 <parameters>
  <separator name="general" >
   <i type="string" name="SYSTEM">ni3al</i>
   <i type="logical" name="LCOMPAT"> F  </i>
  </separator>
  <separator name="electronic" >
   <i type="string" name="PREC">accura</i>
   <i name="ENMAX">    450.00000000</i>
   <i name="ENAUG">    519.42400000</i>
   <i name="EDIFF">      0.00001000</i>
   <i type="int" name="IALGO">    38</i>
   <i type="int" name="IWAVPR">    10</i>
   <i type="int" name="NBANDS">   372</i>
   <i type="int" name="NBANDSLOW">    -1</i>
   <i type="int" name="NBANDSHIGH">    -1</i>
   <i name="NELECT">    562.00000000</i>
   <i type="int" name="TURBO">     0</i>
   <i type="int" name="IRESTART">     0</i>
   <i type="int" name="NREBOOT">     0</i>
   <i type="int" name="NMIN">     0</i>
   <i name="EREF">      0.00000000</i>
   <separator name="electronic smearing" >
    <i type="int" name="ISMEAR">    -5</i>
    <i name="SIGMA">      0.10000000</i>
    <i name="KSPACING">      0.50000000</i>
    <i type="logical" name="KGAMMA"> T  </i>
    <i type="logical" name="KBLOWUP"> T  </i>
   </separator>
   <separator name="electronic projectors" >
    <i type="logical" name="LREAL"> T  </i>
    <v name="ROPT">     -0.00025000     -0.00025000     -0.00025000</v>
    <i type="int" name="LMAXPAW">  -100</i>
    <i type="int" name="LMAXMIX">     4</i>
    <i type="logical" name="NLSPLINE"> F  </i>
   </separator>
   <separator name="electronic startup" >
    <i type="int" name="ISTART">     0</i>
    <i type="int" name="ICHARG">     2</i>
    <i type="int" name="INIWAV">     1</i>
   </separator>
   <separator name="electronic spin" >
    <i type="int" name="ISPIN">     2</i>
    <i type="logical" name="LNONCOLLINEAR"> F  </i>
    <v name="MAGMOM">      1.00000000      1.00000000      1.00000000      1.00000000      1.00000000      1.00000000      1.00000000      1.00000000      1.00000000      1.00000000      1.00000000      1.00000000      1.00000000      1.00000000      1.00000000      1.00000000      1.00000000      1.00000000      1.00000000      1.00000000
      1.00000000      1.00000000      1.00000000      1.00000000      1.00000000      1.00000000      1.00000000      1.00000000      1.00000000      1.00000000      1.00000000      1.00000000      1.00000000      1.00000000      1.00000000      1.00000000      1.00000000      1.00000000      1.00000000      1.00000000
      1.00000000      1.00000000      1.00000000      1.00000000      1.00000000      1.00000000      1.00000000      1.00000000      1.00000000      1.00000000      1.00000000      1.00000000      1.00000000      1.00000000      1.00000000      1.00000000      1.00000000      1.00000000      1.00000000      1.00000000
      1.00000000      1.00000000      1.00000000</v>
    <i name="NUPDOWN">     -1.00000000</i>
    <i type="logical" name="LSORBIT"> F  </i>
    <v name="SAXIS">      0.00000000      0.00000000      1.00000000</v>
    <i type="logical" name="LSPIRAL"> F  </i>
    <v name="QSPIRAL">      0.00000000      0.00000000      0.00000000</v>
    <i type="logical" name="LZEROZ"> F  </i>
   </separator>
   <separator name="electronic exchange-correlation" >
    <i type="logical" name="LASPH"> F  </i>
    <i type="logical" name="LMETAGGA"> F  </i>
   </separator>
   <separator name="electronic convergence" >
    <i type="int" name="NELM">   150</i>
    <i type="int" name="NELMDL">    -5</i>
    <i type="int" name="NELMIN">     2</i>
    <i name="ENINI">    450.00000000</i>
    <separator name="electronic convergence detail" >
     <i type="logical" name="LDIAG"> T  </i>
     <i type="logical" name="LSUBROT"> F  </i>
     <i name="WEIMIN">      0.00000000</i>
     <i name="EBREAK">      0.00000001</i>
     <i name="DEPER">      0.30000000</i>
     <i type="int" name="NRMM">     4</i>
     <i name="TIME">      0.40000000</i>
    </separator>
   </separator>
   <separator name="electronic mixer" >
    <i name="AMIX">      0.05000000</i>
    <i name="BMIX">      0.00010000</i>
    <i name="AMIN">      0.01000000</i>
    <i name="AMIX_MAG">      0.20000000</i>
    <i name="BMIX_MAG">      0.00010000</i>
    <separator name="electronic mixer details" >
     <i type="int" name="IMIX">     4</i>
     <i type="logical" name="MIXFIRST"> F  </i>
     <i type="int" name="MAXMIX">   -45</i>
     <i name="WC">    100.00000000</i>
     <i type="int" name="INIMIX">     1</i>
     <i type="int" name="MIXPRE">     1</i>
     <i type="int" name="MREMOVE">     5</i>
    </separator>
   </separator>
   <separator name="electronic dipolcorrection" >
    <i type="logical" name="LDIPOL"> T  </i>
    <i type="logical" name="LMONO"> F  </i>
    <i type="int" name="IDIPOL">     3</i>
    <i name="EPSILON">      1.00000000</i>
    <v name="DIPOL">   -100.00000000   -100.00000000   -100.00000000</v>
    <i name="EFIELD">      0.00000000</i>
   </separator>
  </separator>
  <separator name="grids" >
   <i type="int" name="NGX">    60</i>
   <i type="int" name="NGY">    60</i>
   <i type="int" name="NGZ">   168</i>
   <i type="int" name="NGXF">   120</i>
   <i type="int" name="NGYF">   120</i>
   <i type="int" name="NGZF">   336</i>
   <i type="logical" name="ADDGRID"> F  </i>
  </separator>
  <separator name="ionic" >
   <i type="int" name="NSW">     0</i>
   <i type="int" name="IBRION">    -1</i>
   <i type="int" name="MDALGO">     0</i>
   <i type="int" name="ISIF">     2</i>
   <i name="PSTRESS">      0.00000000</i>
   <i name="EDIFFG">      0.00010000</i>
   <i type="int" name="NFREE">     0</i>
   <i name="POTIM">      0.50000000</i>
   <i name="SMASS">     -3.00000000</i>
   <i name="SCALEE">      1.00000000</i>
  </separator>
  <separator name="ionic md" >
   <i name="TEBEG">      0.00010000</i>
   <i name="TEEND">      0.00010000</i>
   <i type="int" name="NBLOCK">     1</i>
   <i type="int" name="KBLOCK">     1</i>
   <i type="int" name="NPACO">   256</i>
   <i name="APACO">     10.00000000</i>
  </separator>
  <separator name="symmetry" >
   <i type="int" name="ISYM">     2</i>
   <i name="SYMPREC">      0.00001000</i>
  </separator>
  <separator name="dos" >
   <i type="int" name="LORBIT">     0</i>
   <v name="RWIGS">     -1.00000000     -1.00000000     -1.00000000</v>
   <i type="int" name="NEDOS">   301</i>
   <i name="EMIN">     10.00000000</i>
   <i name="EMAX">    -10.00000000</i>
   <i name="EFERMI">      0.00000000</i>
  </separator>
  <separator name="writing" >
   <i type="int" name="NWRITE">     2</i>
   <i type="logical" name="LWAVE"> T  </i>
   <i type="logical" name="LDOWNSAMPLE"> F  </i>
   <i type="logical" name="LCHARG"> T  </i>
   <i type="logical" name="LPARD"> F  </i>
   <i type="logical" name="LVTOT"> F  </i>
   <i type="logical" name="LVHAR"> F  </i>
   <i type="logical" name="LELF"> T  </i>
   <i type="logical" name="LOPTICS"> F  </i>
   <v name="STM">      0.00000000      0.00000000      0.00000000      0.00000000      0.00000000      0.00000000      0.00000000</v>
  </separator>
  <separator name="performance" >
   <i type="int" name="NPAR">     4</i>
   <i type="int" name="NSIM">     4</i>
   <i type="int" name="NBLK">    -1</i>
   <i type="logical" name="LPLANE"> T  </i>
   <i type="logical" name="LSCALAPACK"> T  </i>
   <i type="logical" name="LSCAAWARE"> F  </i>
   <i type="logical" name="LSCALU"> F  </i>
   <i type="logical" name="LASYNC"> F  </i>
   <i type="logical" name="LORBITALREAL"> F  </i>
  </separator>
  <separator name="miscellaneous" >
   <i type="int" name="IDIOT">     3</i>
   <i type="int" name="PHON_NSTRUCT">    -1</i>
   <i type="logical" name="LMUSIC"> F  </i>
   <v name="POMASS">     55.84700000     51.99600000    207.20000000</v>
   <v name="DARWINR">      0.00000000      0.00000000      0.00000000</v>
   <v name="DARWINV">      1.00000000      1.00000000      1.00000000</v>
   <i type="logical" name="LCORR"> T  </i>
  </separator>
  <i type="logical" name="GGA_COMPAT"> T  </i>
  <i type="logical" name="LBERRY"> F  </i>
  <i type="int" name="ICORELEVEL">     0</i>
  <i type="logical" name="LDAU"> F  </i>
  <i type="int" name="I_CONSTRAINED_M">     0</i>
  <separator name="electronic exchange-correlation" >
   <i type="string" name="GGA">--</i>
   <i type="int" name="VOSKOWN">     0</i>
   <i type="logical" name="LHFCALC"> F  </i>
   <i type="string" name="PRECFOCK"></i>
   <i type="logical" name="LSYMGRAD"> F  </i>
   <i type="logical" name="LHFONE"> F  </i>
   <i type="logical" name="LRHFCALC"> F  </i>
   <i type="logical" name="LTHOMAS"> F  </i>
   <i type="logical" name="LMODELHF"> F  </i>
   <i type="logical" name="LFOCKACE"> F  </i>
   <i name="ENCUT4O">     -1.00000000</i>
   <i type="int" name="EXXOEP">     0</i>
   <i type="int" name="FOURORBIT">     0</i>
   <i name="AEXX">      0.00000000</i>
   <i name="HFALPHA">      0.00000000</i>
   <i name="MCALPHA">      0.00000000</i>
   <i name="ALDAX">      1.00000000</i>
   <i name="AGGAX">      1.00000000</i>
   <i name="ALDAC">      1.00000000</i>
   <i name="AGGAC">      1.00000000</i>
   <i type="int" name="NKREDX">     1</i>
   <i type="int" name="NKREDY">     1</i>
   <i type="int" name="NKREDZ">     1</i>
   <i type="logical" name="SHIFTRED"> F  </i>
   <i type="logical" name="ODDONLY"> F  </i>
   <i type="logical" name="EVENONLY"> F  </i>
   <i type="int" name="LMAXFOCK">     0</i>
   <i type="int" name="NMAXFOCKAE">     0</i>
   <i type="logical" name="LFOCKAEDFT"> F  </i>
   <i name="HFSCREEN">      0.00000000</i>
   <i name="HFSCREENC">      0.00000000</i>
   <i type="int" name="NBANDSGWLOW">     0</i>
  </separator>
  <separator name="vdW DFT" >
   <i type="logical" name="LUSE_VDW"> F  </i>
   <i name="Zab_VDW">     -0.84910000</i>
   <i name="PARAM1">      0.12340000</i>
   <i name="PARAM2">      1.00000000</i>
   <i name="PARAM3">      0.00000000</i>
  </separator>
  <separator name="model GW" >
   <i type="int" name="MODEL_GW">     0</i>
   <i name="MODEL_EPS0">     16.29231243</i>
   <i name="MODEL_ALPHA">      1.00000000</i>
  </separator>
  <separator name="linear response parameters" >
   <i type="logical" name="LEPSILON"> F  </i>
   <i type="logical" name="LRPA"> F  </i>
   <i type="logical" name="LNABLA"> F  </i>
   <i type="logical" name="LVEL"> F  </i>
   <i name="CSHIFT">      0.10000000</i>
   <i name="OMEGAMAX">     -1.00000000</i>
   <i name="DEG_THRESHOLD">      0.00200000</i>
   <i name="RTIME">     -0.10000000</i>
   <i name="WPLASMAI">      0.00000000</i>
   <v name="DFIELD">      0.00000000      0.00000000      0.00000000</v>
   <v name="WPLASMA">      0.00000000      0.00000000      0.00000000      0.00000000      0.00000000      0.00000000      0.00000000      0.00000000      0.00000000</v>
  </separator>
  <separator name="orbital magnetization" >
   <i type="logical" name="NUCIND"> F  </i>
   <v name="MAGPOS">      0.00000000      0.00000000      0.00000000</v>
   <i type="logical" name="LNICSALL"> T  </i>
   <i type="logical" name="ORBITALMAG"> F  </i>
   <i type="logical" name="LMAGBLOCH"> F  </i>
   <i type="logical" name="LCHIMAG"> F  </i>
   <i type="logical" name="LGAUGE"> T  </i>
   <i type="int" name="MAGATOM">     0</i>
   <v name="MAGDIPOL">      0.00000000      0.00000000      0.00000000</v>
   <v name="AVECCONST">      0.00000000      0.00000000      0.00000000</v>
  </separator>
  <separator name="response functions" >
   <i type="logical" name="LFINITE_TEMPERATURE"> F  </i>
   <i type="logical" name="LADDER"> F  </i>
   <i type="logical" name="LRPAFORCE"> F  </i>
   <i type="logical" name="LFXC"> F  </i>
   <i type="logical" name="LHARTREE"> T  </i>
   <i type="int" name="IBSE">     0</i>
   <v type="int" name="KPOINT">    -1     0     0     0</v>
   <i type="logical" name="LTCTC"> F  </i>
   <i type="logical" name="LTCTE"> F  </i>
   <i type="logical" name="LTETE"> F  </i>
   <i type="logical" name="LTRIPLET"> F  </i>
   <i type="logical" name="LFXCEPS"> F  </i>
   <i type="logical" name="LFXHEG"> F  </i>
   <i type="int" name="NATURALO">     2</i>
   <i type="logical" name="LHOLEGF"> F  </i>
   <i type="logical" name="L2ORDER"> F  </i>
   <i type="logical" name="LDMP1"> F  </i>
   <i type="logical" name="LMP2LT"> F  </i>
   <i type="logical" name="LSMP2LT"> F  </i>
   <i type="logical" name="LGWLF"> F  </i>
   <i name="ENCUTGW">     -2.00000000</i>
   <i name="ENCUTGWSOFT">     -2.00000000</i>
   <i name="ENCUTLF">     -1.00000000</i>
   <i type="logical" name="LESF_SPLINES"> F  </i>
   <i type="int" name="LMAXMP2">    -1</i>
   <i name="SCISSOR">      0.00000000</i>
   <i type="int" name="NOMEGA">     0</i>
   <i type="int" name="NOMEGAR">     0</i>
   <i type="int" name="NBANDSGW">    -1</i>
   <i type="int" name="NBANDSO">    -1</i>
   <i type="int" name="NBANDSV">    -1</i>
   <i type="int" name="NELMGW">     1</i>
   <i type="int" name="NELMHF">     1</i>
   <i type="int" name="DIM">     3</i>
   <i type="int" name="IESPILON">     4</i>
   <i type="int" name="ANTIRES">     0</i>
   <i name="OMEGAMAX">    -30.00000000</i>
   <i name="OMEGAMIN">    -30.00000000</i>
   <i name="OMEGATL">   -200.00000000</i>
   <i type="int" name="OMEGAGRID">     0</i>
   <i name="CSHIFT">     -0.10000000</i>
   <i type="logical" name="LSELFENERGY"> F  </i>
   <i type="logical" name="LSPECTRAL"> F  </i>
   <i type="logical" name="LSPECTRALGW"> F  </i>
   <i type="logical" name="LSINGLES"> F  </i>
   <i type="logical" name="LFERMIGW"> F  </i>
   <i type="logical" name="ODDONLYGW"> F  </i>
   <i type="logical" name="EVENONLYGW"> F  </i>
   <i type="int" name="NKREDLFX">     1</i>
   <i type="int" name="NKREDLFY">     1</i>
   <i type="int" name="NKREDLFZ">     1</i>
   <i type="int" name="MAXMEM">  2800</i>
   <i type="int" name="TELESCOPE">     0</i>
   <i type="int" name="NTAUPAR">    -1</i>
   <i type="int" name="NOMEGAPAR">    -1</i>
   <i name="DAMP_NEWTON">      0.80000001</i>
   <i name="LAMBDA">      1.00000000</i>
  </separator>
  <separator name="External order field" >
   <i name="OFIELD_KAPPA">      0.00000000</i>
   <v name="OFIELD_K">      0.00000000      0.00000000      0.00000000</v>
   <i name="OFIELD_Q6_NEAR">      0.00000000</i>
   <i name="OFIELD_Q6_FAR">      0.00000000</i>
   <i name="OFIELD_A">      0.00000000</i>
  </separator>
  <separator name="optional k-points parameters" >
   <i type="int" name="KPOINTS_OPT_MODE">     1</i>
   <i type="logical" name="LKPOINTS_OPT"> F  </i>
  </separator>
  <separator name="solvation model" >
   <i type="logical" name="LSOL"> F  </i>
  </separator>
 </parameters>
 <atominfo>
  <atoms>      63 </atoms>
  <types>       3 </types>
  <array name="atoms" >
   <dimension dim="1">ion</dimension>
   <field type="string">element</field>
   <field type="int">atomtype</field>
   <set>
    <rc><c>Fe</c><c>   1</c></rc>
    <rc><c>Fe</c><c>   1</c></rc>
    <rc><c>Fe</c><c>   1</c></rc>
    <rc><c>Fe</c><c>   1</c></rc>
    <rc><c>Fe</c><c>   1</c></rc>
    <rc><c>Fe</c><c>   1</c></rc>
    <rc><c>Fe</c><c>   1</c></rc>
    <rc><c>Fe</c><c>   1</c></rc>
    <rc><c>Fe</c><c>   1</c></rc>
    <rc><c>Fe</c><c>   1</c></rc>
    <rc><c>Fe</c><c>   1</c></rc>
    <rc><c>Fe</c><c>   1</c></rc>
    <rc><c>Fe</c><c>   1</c></rc>
    <rc><c>Fe</c><c>   1</c></rc>
    <rc><c>Fe</c><c>   1</c></rc>
    <rc><c>Fe</c><c>   1</c></rc>
    <rc><c>Fe</c><c>   1</c></rc>
    <rc><c>Fe</c><c>   1</c></rc>
    <rc><c>Fe</c><c>   1</c></rc>
    <rc><c>Fe</c><c>   1</c></rc>
    <rc><c>Fe</c><c>   1</c></rc>
    <rc><c>Fe</c><c>   1</c></rc>
    <rc><c>Fe</c><c>   1</c></rc>
    <rc><c>Fe</c><c>   1</c></rc>
    <rc><c>Fe</c><c>   1</c></rc>
    <rc><c>Fe</c><c>   1</c></rc>
    <rc><c>Fe</c><c>   1</c></rc>
    <rc><c>Fe</c><c>   1</c></rc>
    <rc><c>Fe</c><c>   1</c></rc>
    <rc><c>Fe</c><c>   1</c></rc>
    <rc><c>Fe</c><c>   1</c></rc>
    <rc><c>Fe</c><c>   1</c></rc>
    <rc><c>Fe</c><c>   1</c></rc>
    <rc><c>Fe</c><c>   1</c></rc>
    <rc><c>Fe</c><c>   1</c></rc>
    <rc><c>Fe</c><c>   1</c></rc>
    <rc><c>Fe</c><c>   1</c></rc>
    <rc><c>Fe</c><c>   1</c></rc>
    <rc><c>Fe</c><c>   1</c></rc>
    <rc><c>Fe</c><c>   1</c></rc>
    <rc><c>Fe</c><c>   1</c></rc>
    <rc><c>Fe</c><c>   1</c></rc>
    <rc><c>Fe</c><c>   1</c></rc>
    <rc><c>Fe</c><c>   1</c></rc>
    <rc><c>Fe</c><c>   1</c></rc>
    <rc><c>Fe</c><c>   1</c></rc>
    <rc><c>Fe</c><c>   1</c></rc>
    <rc><c>Fe</c><c>   1</c></rc>
    <rc><c>Fe</c><c>   1</c></rc>
    <rc><c>Cr</c><c>   2</c></rc>
    <rc><c>Cr</c><c>   2</c></rc>
    <rc><c>Cr</c><c>   2</c></rc>
    <rc><c>Cr</c><c>   2</c></rc>
    <rc><c>Cr</c><c>   2</c></rc>
    <rc><c>Cr</c><c>   2</c></rc>
    <rc><c>Cr</c><c>   2</c></rc>
    <rc><c>Cr</c><c>   2</c></rc>
    <rc><c>Cr</c><c>   2</c></rc>
    <rc><c>Cr</c><c>   2</c></rc>
    <rc><c>Cr</c><c>   2</c></rc>
    <rc><c>Cr</c><c>   2</c></rc>
    <rc><c>Cr</c><c>   2</c></rc>
    <rc><c>Pb</c><c>   3</c></rc>
   </set>
  </array>
  <array name="atomtypes" >
   <dimension dim="1">type</dimension>
   <field type="int">atomspertype</field>
   <field type="string">element</field>
   <field>mass</field>
   <field>valence</field>
   <field type="string">pseudopotential</field>
   <set>
    <rc><c>  49</c><c>Fe</c><c>     55.84700000</c><c>      8.00000000</c><c>  PAW_PBE Fe 06Sep2000                  </c></rc>
    <rc><c>  13</c><c>Cr</c><c>     51.99600000</c><c>     12.00000000</c><c>  PAW_PBE Cr_pv 02Aug2007               </c></rc>
    <rc><c>   1</c><c>Pb</c><c>    207.20000000</c><c>     14.00000000</c><c>  PAW_PBE Pb_d 06Sep2000                </c></rc>
   </set>
  </array>
 </atominfo>
 <structure name="initialpos" >
  <crystal>
   <varray name="basis" >
    <v>       8.53269958       0.00000000       0.00000000 </v>
    <v>      -0.00051933       8.49699972       0.00000000 </v>
    <v>       0.00000000       0.00000000      23.59499931 </v>
   </varray>
   <i name="volume">   1710.69280467 </i>
   <varray name="rec_basis" >
    <v>       0.11719620       0.00000716       0.00000000 </v>
    <v>       0.00000000       0.11768860       0.00000000 </v>
    <v>       0.00000000       0.00000000       0.04238186 </v>
   </varray>
  </crystal>
  <varray name="positions" >
   <v>       0.00086000       0.99993000       0.24271000 </v>
   <v>       0.16629362       0.16431183       0.30348632 </v>
   <v>       0.50258983       0.16701150       0.30348611 </v>
   <v>       0.66822000       0.00107000       0.24272000 </v>
   <v>       0.83556225       0.16882101       0.30331760 </v>
   <v>       0.00044000       0.33497000       0.24240000 </v>
   <v>       0.16733478       0.50276511       0.30394695 </v>
   <v>       0.33469000       0.33305000       0.24267000 </v>
   <v>       0.50288218       0.49983814       0.30272345 </v>
   <v>       0.83212209       0.50226955       0.30205048 </v>
   <v>       0.16857802       0.83423926       0.30483494 </v>
   <v>       0.33342000       0.66555000       0.24261000 </v>
   <v>       0.83691421       0.83413972       0.30332469 </v>
   <v>       0.00064000       0.00119000       0.00199000 </v>
   <v>       0.99721599       0.00394819       0.36140875 </v>
   <v>       0.16843000       0.16962000       0.06269000 </v>
   <v>       0.33460000       0.00297000       0.00254000 </v>
   <v>       0.33701312       0.00536794       0.36249781 </v>
   <v>       0.50463000       0.16850000       0.06120000 </v>
   <v>       0.83272000       0.16670000       0.06193000 </v>
   <v>       0.00004000       0.33467000       0.00213000 </v>
   <v>       0.00792554       0.33319628       0.36075015 </v>
   <v>       0.16757000       0.49895000       0.06268000 </v>
   <v>       0.50099000       0.49896000       0.06206000 </v>
   <v>       0.83393000       0.50234000       0.06235000 </v>
   <v>       0.00121000       0.66785000       0.00188000 </v>
   <v>       0.99463189       0.66374227       0.36064385 </v>
   <v>       0.16792000       0.83462000       0.06228000 </v>
   <v>       0.33437000       0.66664000       0.00225000 </v>
   <v>       0.34052882       0.66333720       0.36160367 </v>
   <v>       0.50152000       0.83563000       0.06217000 </v>
   <v>       0.66753000       0.66705000       0.00175000 </v>
   <v>       0.66373958       0.67926095       0.36130925 </v>
   <v>       0.83293000       0.83584000       0.06235000 </v>
   <v>       0.00121000       0.00098000       0.12225000 </v>
   <v>       0.16700000       0.16811000       0.18239000 </v>
   <v>       0.33470000       0.00227000       0.12192000 </v>
   <v>       0.50174000       0.16716000       0.18263000 </v>
   <v>       0.83421000       0.16639000       0.18283000 </v>
   <v>       0.16964000       0.49868000       0.18209000 </v>
   <v>       0.50219000       0.50081000       0.18317000 </v>
   <v>       0.66741000       0.33395000       0.12233000 </v>
   <v>       0.83134000       0.50253000       0.18283000 </v>
   <v>       0.00132000       0.66795000       0.12253000 </v>
   <v>       0.16898000       0.83509000       0.18243000 </v>
   <v>       0.33446000       0.66703000       0.12223000 </v>
   <v>       0.49971000       0.83538000       0.18278000 </v>
   <v>       0.66698000       0.66840000       0.12259000 </v>
   <v>       0.83488000       0.83403000       0.18294000 </v>
   <v>       0.33558000       0.99863000       0.24353000 </v>
   <v>       0.66801000       0.33262000       0.24229000 </v>
   <v>       0.00448000       0.66739000       0.24217000 </v>
   <v>       0.49556735       0.83404914       0.30120377 </v>
   <v>       0.66521000       0.67351000       0.24327000 </v>
   <v>       0.66620000       0.99680000       0.00000000 </v>
   <v>       0.66787532       0.98978579       0.36338137 </v>
   <v>       0.33213000       0.33386000       0.00135000 </v>
   <v>       0.32455453       0.33256390       0.36435065 </v>
   <v>       0.67040000       0.33673000       0.00321000 </v>
   <v>       0.66728000       0.99998000       0.12246000 </v>
   <v>       0.99806000       0.33495000       0.12235000 </v>
   <v>       0.33675000       0.33238000       0.12261000 </v>
   <v>       0.67241174       0.34177378       0.39357448 </v>
  </varray>
  <varray name="selective"  type="logical" >
   <v type="logical" >  F  F  F </v>
   <v type="logical" >  T  T  T </v>
   <v type="logical" >  T  T  T </v>
   <v type="logical" >  F  F  F </v>
   <v type="logical" >  T  T  T </v>
   <v type="logical" >  F  F  F </v>
   <v type="logical" >  T  T  T </v>
   <v type="logical" >  F  F  F </v>
   <v type="logical" >  T  T  T </v>
   <v type="logical" >  T  T  T </v>
   <v type="logical" >  T  T  T </v>
   <v type="logical" >  F  F  F </v>
   <v type="logical" >  T  T  T </v>
   <v type="logical" >  F  F  F </v>
   <v type="logical" >  T  T  T </v>
   <v type="logical" >  F  F  F </v>
   <v type="logical" >  F  F  F </v>
   <v type="logical" >  T  T  T </v>
   <v type="logical" >  F  F  F </v>
   <v type="logical" >  F  F  F </v>
   <v type="logical" >  F  F  F </v>
   <v type="logical" >  T  T  T </v>
   <v type="logical" >  F  F  F </v>
   <v type="logical" >  F  F  F </v>
   <v type="logical" >  F  F  F </v>
   <v type="logical" >  F  F  F </v>
   <v type="logical" >  T  T  T </v>
   <v type="logical" >  F  F  F </v>
   <v type="logical" >  F  F  F </v>
   <v type="logical" >  T  T  T </v>
   <v type="logical" >  F  F  F </v>
   <v type="logical" >  F  F  F </v>
   <v type="logical" >  T  T  T </v>
   <v type="logical" >  F  F  F </v>
   <v type="logical" >  F  F  F </v>
   <v type="logical" >  F  F  F </v>
   <v type="logical" >  F  F  F </v>
   <v type="logical" >  F  F  F </v>
   <v type="logical" >  F  F  F </v>
   <v type="logical" >  F  F  F </v>
   <v type="logical" >  F  F  F </v>
   <v type="logical" >  F  F  F </v>
   <v type="logical" >  F  F  F </v>
   <v type="logical" >  F  F  F </v>
   <v type="logical" >  F  F  F </v>
   <v type="logical" >  F  F  F </v>
   <v type="logical" >  F  F  F </v>
   <v type="logical" >  F  F  F </v>
   <v type="logical" >  F  F  F </v>
   <v type="logical" >  F  F  F </v>
   <v type="logical" >  F  F  F </v>
   <v type="logical" >  F  F  F </v>
   <v type="logical" >  T  T  T </v>
   <v type="logical" >  F  F  F </v>
   <v type="logical" >  F  F  F </v>
   <v type="logical" >  T  T  T </v>
   <v type="logical" >  F  F  F </v>
   <v type="logical" >  T  T  T </v>
   <v type="logical" >  F  F  F </v>
   <v type="logical" >  F  F  F </v>
   <v type="logical" >  F  F  F </v>
   <v type="logical" >  F  F  F </v>
   <v type="logical" >  T  T  T </v>
  </varray>
  <nose>
   <v>      -3.00000000       0.00000000       0.00010000       0.00010000 </v>
  </nose>
 </structure>
 <calculation>
  <scstep>
   <time name="dav">  193.96   27.89</time>
   <time name="total">  202.65   29.60</time>
   <dipole>
    <v name="dipole">      0.00000000       0.00000000       0.00003445 </v>
    <i name="Tr[quadrupol]">  -7016.46919479 </i>
    <i name="Echarged">      0.00000000 </i>
    <i name="Edipol_quadrupol">      0.00000000 </i>
    <i name="Eion">      0.00000000 </i>
   </dipole>
   <energy>
    <i name="alphaZ">   1801.24055046 </i>
    <i name="ewald"> 210413.12978981 </i>
    <i name="hartreedc">-260740.32703164 </i>
    <i name="XCdc">    943.72514492 </i>
    <i name="pawpsdc">  45612.52296067 </i>
    <i name="pawaedc"> -46602.56091303 </i>
    <i name="eentropy">      0.00000000 </i>
    <i name="bandstr">   1891.28474767 </i>
    <i name="atom">  52205.67765473 </i>
    <i name="e_fr_energy">   5524.69290358 </i>
    <i name="e_wo_entrp">   5524.69290358 </i>
    <i name="e_0_energy">   5524.69290358 </i>
   </energy>
  </scstep>
  <scstep>
   <time name="dav">  185.41   26.65</time>
   <time name="total">  185.98   26.73</time>
   <dipole>
    <v name="dipole">      0.00000000       0.00000000       0.00003445 </v>
    <i name="Tr[quadrupol]">  -7016.46919479 </i>
    <i name="Echarged">      0.00000000 </i>
    <i name="Edipol_quadrupol">      0.00000000 </i>
    <i name="Eion">      0.00000000 </i>
   </dipole>
   <energy>
    <i name="e_fr_energy">    -68.74663114 </i>
    <i name="e_wo_entrp">    -68.74663114 </i>
    <i name="e_0_energy">    -68.74663114 </i>
   </energy>
  </scstep>
  <scstep>
   <time name="dav">  191.10   27.44</time>
   <time name="total">  191.79   27.54</time>
   <dipole>
    <v name="dipole">      0.00000000       0.00000000       0.00003445 </v>
    <i name="Tr[quadrupol]">  -7016.46919479 </i>
    <i name="Echarged">      0.00000000 </i>
    <i name="Edipol_quadrupol">      0.00000000 </i>
    <i name="Eion">      0.00000000 </i>
   </dipole>
   <energy>
    <i name="e_fr_energy">   -523.53709923 </i>
    <i name="e_wo_entrp">   -523.53709923 </i>
    <i name="e_0_energy">   -523.53709923 </i>
   </energy>
  </scstep>
  <scstep>
   <time name="dav">  290.90   41.71</time>
   <time name="total">  291.44   41.78</time>
   <dipole>
    <v name="dipole">      0.00000000       0.00000000       0.00003445 </v>
    <i name="Tr[quadrupol]">  -7016.46919479 </i>
    <i name="Echarged">      0.00000000 </i>
    <i name="Edipol_quadrupol">      0.00000000 </i>
    <i name="Eion">      0.00000000 </i>
   </dipole>
   <energy>
    <i name="e_fr_energy">   -579.74916232 </i>
    <i name="e_wo_entrp">   -579.74916232 </i>
    <i name="e_0_energy">   -579.74916232 </i>
   </energy>
  </scstep>
  <scstep>
   <time name="dav">  276.49   39.62</time>
   <time name="total">  278.81   40.17</time>
   <dipole>
    <v name="dipole">      0.00000000       0.00000000       0.00003445 </v>
    <i name="Tr[quadrupol]">  -7016.46919479 </i>
    <i name="Echarged">      0.00000000 </i>
    <i name="Edipol_quadrupol">      0.00000000 </i>
    <i name="Eion">      0.00000000 </i>
   </dipole>
   <energy>
    <i name="e_fr_energy">   -582.83748924 </i>
    <i name="e_wo_entrp">   -582.83748924 </i>
    <i name="e_0_energy">   -582.83748924 </i>
   </energy>
  </scstep>
  <scstep>
   <time name="dav">  301.11   43.22</time>
   <time name="total">  311.40   45.38</time>
   <dipole>
    <v name="dipole">      0.00000000       0.00000000       1.29139997 </v>
    <i name="Tr[quadrupol]">  -7040.36451393 </i>
    <i name="Echarged">      0.00000000 </i>
    <i name="Edipol_quadrupol">      0.00000000 </i>
    <i name="Eion">      0.00000000 </i>
   </dipole>
   <energy>
    <i name="e_fr_energy">   -707.97617831 </i>
    <i name="e_wo_entrp">   -707.97617831 </i>
    <i name="e_0_energy">   -707.97617831 </i>
   </energy>
  </scstep>
  <scstep>
   <time name="dav">  305.22   43.84</time>
   <time name="total">  315.54   46.01</time>
   <dipole>
    <v name="dipole">      0.00000000       0.00000000      -1.54321027 </v>
    <i name="Tr[quadrupol]">  -7027.68267401 </i>
    <i name="Echarged">      0.00000000 </i>
    <i name="Edipol_quadrupol">      0.00000000 </i>
    <i name="Eion">      0.00000000 </i>
   </dipole>
   <energy>
    <i name="e_fr_energy">   -676.14470916 </i>
    <i name="e_wo_entrp">   -676.14470916 </i>
    <i name="e_0_energy">   -676.14470916 </i>
   </energy>
  </scstep>
  <scstep>
   <time name="dav">  301.42   43.33</time>
   <time name="total">  311.59   45.48</time>
   <dipole>
    <v name="dipole">      0.00000000       0.00000000       0.55790273 </v>
    <i name="Tr[quadrupol]">  -7025.28359049 </i>
    <i name="Echarged">      0.00000000 </i>
    <i name="Edipol_quadrupol">      0.00000000 </i>
    <i name="Eion">      0.00000000 </i>
   </dipole>
   <energy>
    <i name="e_fr_energy">   -553.04772900 </i>
    <i name="e_wo_entrp">   -553.04772900 </i>
    <i name="e_0_energy">   -553.04772900 </i>
   </energy>
  </scstep>
  <scstep>
   <time name="dav">  284.86   40.95</time>
   <time name="total">  295.05   43.09</time>
   <dipole>
    <v name="dipole">      0.00000000       0.00000000      -0.03858379 </v>
    <i name="Tr[quadrupol]">  -7025.30319595 </i>
    <i name="Echarged">      0.00000000 </i>
    <i name="Edipol_quadrupol">      0.00000000 </i>
    <i name="Eion">      0.00000000 </i>
   </dipole>
   <energy>
    <i name="e_fr_energy">   -530.46849897 </i>
    <i name="e_wo_entrp">   -530.46849897 </i>
    <i name="e_0_energy">   -530.46849897 </i>
   </energy>
  </scstep>
  <scstep>
   <time name="dav">  274.38   39.41</time>
   <time name="total">  284.79   41.57</time>
   <dipole>
    <v name="dipole">      0.00000000       0.00000000       0.18864938 </v>
    <i name="Tr[quadrupol]">  -7026.15577081 </i>
    <i name="Echarged">      0.00000000 </i>
    <i name="Edipol_quadrupol">      0.00000000 </i>
    <i name="Eion">      0.00000000 </i>
   </dipole>
   <energy>
    <i name="e_fr_energy">   -514.27071329 </i>
    <i name="e_wo_entrp">   -514.27071329 </i>
    <i name="e_0_energy">   -514.27071329 </i>
   </energy>
  </scstep>
  <scstep>
   <time name="dav">  244.49   35.11</time>
   <time name="total">  254.76   37.25</time>
   <dipole>
    <v name="dipole">      0.00000000       0.00000000      -0.07596879 </v>
    <i name="Tr[quadrupol]">  -7031.89457923 </i>
    <i name="Echarged">      0.00000000 </i>
    <i name="Edipol_quadrupol">      0.00000000 </i>
    <i name="Eion">      0.00000000 </i>
   </dipole>
   <energy>
    <i name="e_fr_energy">   -497.92514067 </i>
    <i name="e_wo_entrp">   -497.92514067 </i>
    <i name="e_0_energy">   -497.92514067 </i>
   </energy>
  </scstep>
  <scstep>
   <time name="dav">  237.54   34.06</time>
   <time name="total">  247.80   36.21</time>
   <dipole>
    <v name="dipole">      0.00000000       0.00000000       0.07157957 </v>
    <i name="Tr[quadrupol]">  -7037.10411863 </i>
    <i name="Echarged">      0.00000000 </i>
    <i name="Edipol_quadrupol">      0.00000000 </i>
    <i name="Eion">      0.00000000 </i>
   </dipole>
   <energy>
    <i name="e_fr_energy">   -492.94311922 </i>
    <i name="e_wo_entrp">   -492.94311922 </i>
    <i name="e_0_energy">   -492.94311922 </i>
   </energy>
  </scstep>
  <scstep>
   <time name="dav">  246.76   35.36</time>
   <time name="total">  257.25   37.54</time>
   <dipole>
    <v name="dipole">      0.00000000       0.00000000       0.09367779 </v>
    <i name="Tr[quadrupol]">  -7038.41104061 </i>
    <i name="Echarged">      0.00000000 </i>
    <i name="Edipol_quadrupol">      0.00000000 </i>
    <i name="Eion">      0.00000000 </i>
   </dipole>
   <energy>
    <i name="e_fr_energy">   -493.25678913 </i>
    <i name="e_wo_entrp">   -493.25678913 </i>
    <i name="e_0_energy">   -493.25678913 </i>
   </energy>
  </scstep>
  <scstep>
   <time name="dav">  225.26   32.27</time>
   <time name="total">  235.51   34.41</time>
   <dipole>
    <v name="dipole">      0.00000000       0.00000000       0.09876709 </v>
    <i name="Tr[quadrupol]">  -7038.32664437 </i>
    <i name="Echarged">      0.00000000 </i>
    <i name="Edipol_quadrupol">      0.00000000 </i>
    <i name="Eion">      0.00000000 </i>
   </dipole>
   <energy>
    <i name="e_fr_energy">   -493.20449484 </i>
    <i name="e_wo_entrp">   -493.20449484 </i>
    <i name="e_0_energy">   -493.20449484 </i>
   </energy>
  </scstep>
  <scstep>
   <time name="dav">  299.60   42.95</time>
   <time name="total">  309.80   45.09</time>
   <dipole>
    <v name="dipole">      0.00000000       0.00000000       0.21732905 </v>
    <i name="Tr[quadrupol]">  -7039.53996486 </i>
    <i name="Echarged">      0.00000000 </i>
    <i name="Edipol_quadrupol">      0.00000000 </i>
    <i name="Eion">      0.00000000 </i>
   </dipole>
   <energy>
    <i name="e_fr_energy">   -495.58225536 </i>
    <i name="e_wo_entrp">   -495.58225536 </i>
    <i name="e_0_energy">   -495.58225536 </i>
   </energy>
  </scstep>
  <scstep>
   <time name="dav">  293.38   42.03</time>
   <time name="total">  303.58   44.17</time>
   <dipole>
    <v name="dipole">      0.00000000       0.00000000       0.08341165 </v>
    <i name="Tr[quadrupol]">  -7040.86287346 </i>
    <i name="Echarged">      0.00000000 </i>
    <i name="Edipol_quadrupol">      0.00000000 </i>
    <i name="Eion">      0.00000000 </i>
   </dipole>
   <energy>
    <i name="e_fr_energy">   -495.82511504 </i>
    <i name="e_wo_entrp">   -495.82511504 </i>
    <i name="e_0_energy">   -495.82511504 </i>
   </energy>
  </scstep>
  <scstep>
   <time name="dav">  265.96   38.09</time>
   <time name="total">  276.11   40.24</time>
   <dipole>
    <v name="dipole">      0.00000000       0.00000000       0.20220760 </v>
    <i name="Tr[quadrupol]">  -7044.40720463 </i>
    <i name="Echarged">      0.00000000 </i>
    <i name="Edipol_quadrupol">      0.00000000 </i>
    <i name="Eion">      0.00000000 </i>
   </dipole>
   <energy>
    <i name="e_fr_energy">   -499.17878847 </i>
    <i name="e_wo_entrp">   -499.17878847 </i>
    <i name="e_0_energy">   -499.17878847 </i>
   </energy>
  </scstep>
  <scstep>
   <time name="dav">  278.93   39.97</time>
   <time name="total">  289.15   42.13</time>
   <dipole>
    <v name="dipole">      0.00000000       0.00000000       0.11699657 </v>
    <i name="Tr[quadrupol]">  -7046.50401351 </i>
    <i name="Echarged">      0.00000000 </i>
    <i name="Edipol_quadrupol">      0.00000000 </i>
    <i name="Eion">      0.00000000 </i>
   </dipole>
   <energy>
    <i name="e_fr_energy">   -501.07137865 </i>
    <i name="e_wo_entrp">   -501.07137865 </i>
    <i name="e_0_energy">   -501.07137865 </i>
   </energy>
  </scstep>
  <scstep>
   <time name="dav">  270.16   38.69</time>
   <time name="total">  280.45   40.84</time>
   <dipole>
    <v name="dipole">      0.00000000       0.00000000       0.12050937 </v>
    <i name="Tr[quadrupol]">  -7047.96930429 </i>
    <i name="Echarged">      0.00000000 </i>
    <i name="Edipol_quadrupol">      0.00000000 </i>
    <i name="Eion">      0.00000000 </i>
   </dipole>
   <energy>
    <i name="e_fr_energy">   -502.62056309 </i>
    <i name="e_wo_entrp">   -502.62056309 </i>
    <i name="e_0_energy">   -502.62056309 </i>
   </energy>
  </scstep>
  <scstep>
   <time name="dav">  265.36   38.10</time>
   <time name="total">  275.64   40.26</time>
   <dipole>
    <v name="dipole">      0.00000000       0.00000000       0.10013757 </v>
    <i name="Tr[quadrupol]">  -7047.90198786 </i>
    <i name="Echarged">      0.00000000 </i>
    <i name="Edipol_quadrupol">      0.00000000 </i>
    <i name="Eion">      0.00000000 </i>
   </dipole>
   <energy>
    <i name="e_fr_energy">   -502.83897132 </i>
    <i name="e_wo_entrp">   -502.83897132 </i>
    <i name="e_0_energy">   -502.83897132 </i>
   </energy>
  </scstep>
  <scstep>
   <time name="dav">  287.16   41.22</time>
   <time name="total">  297.32   43.36</time>
   <dipole>
    <v name="dipole">      0.00000000       0.00000000       0.11766932 </v>
    <i name="Tr[quadrupol]">  -7047.34422204 </i>
    <i name="Echarged">      0.00000000 </i>
    <i name="Edipol_quadrupol">      0.00000000 </i>
    <i name="Eion">      0.00000000 </i>
   </dipole>
   <energy>
    <i name="e_fr_energy">   -503.00959416 </i>
    <i name="e_wo_entrp">   -503.00959416 </i>
    <i name="e_0_energy">   -503.00959416 </i>
   </energy>
  </scstep>
  <scstep>
   <time name="dav">  288.33   41.42</time>
   <time name="total">  298.68   43.59</time>
   <dipole>
    <v name="dipole">      0.00000000       0.00000000       0.09727186 </v>
    <i name="Tr[quadrupol]">  -7047.41084523 </i>
    <i name="Echarged">      0.00000000 </i>
    <i name="Edipol_quadrupol">      0.00000000 </i>
    <i name="Eion">      0.00000000 </i>
   </dipole>
   <energy>
    <i name="e_fr_energy">   -503.69393615 </i>
    <i name="e_wo_entrp">   -503.69393615 </i>
    <i name="e_0_energy">   -503.69393615 </i>
   </energy>
  </scstep>
  <scstep>
   <time name="dav">  278.47   39.91</time>
   <time name="total">  288.50   42.06</time>
   <dipole>
    <v name="dipole">      0.00000000       0.00000000       0.11350925 </v>
    <i name="Tr[quadrupol]">  -7047.38496604 </i>
    <i name="Echarged">      0.00000000 </i>
    <i name="Edipol_quadrupol">      0.00000000 </i>
    <i name="Eion">      0.00000000 </i>
   </dipole>
   <energy>
    <i name="e_fr_energy">   -503.92947527 </i>
    <i name="e_wo_entrp">   -503.92947527 </i>
    <i name="e_0_energy">   -503.92947527 </i>
   </energy>
  </scstep>
  <scstep>
   <time name="dav">  290.32   41.62</time>
   <time name="total">  300.80   43.80</time>
   <dipole>
    <v name="dipole">      0.00000000       0.00000000       0.07964331 </v>
    <i name="Tr[quadrupol]">  -7047.20847743 </i>
    <i name="Echarged">      0.00000000 </i>
    <i name="Edipol_quadrupol">      0.00000000 </i>
    <i name="Eion">      0.00000000 </i>
   </dipole>
   <energy>
    <i name="e_fr_energy">   -504.17070477 </i>
    <i name="e_wo_entrp">   -504.17070477 </i>
    <i name="e_0_energy">   -504.17070477 </i>
   </energy>
  </scstep>
  <scstep>
   <time name="dav">  293.76   42.13</time>
   <time name="total">  304.11   44.28</time>
   <dipole>
    <v name="dipole">      0.00000000       0.00000000       0.06029105 </v>
    <i name="Tr[quadrupol]">  -7046.85280886 </i>
    <i name="Echarged">      0.00000000 </i>
    <i name="Edipol_quadrupol">      0.00000000 </i>
    <i name="Eion">      0.00000000 </i>
   </dipole>
   <energy>
    <i name="e_fr_energy">   -504.66443094 </i>
    <i name="e_wo_entrp">   -504.66443094 </i>
    <i name="e_0_energy">   -504.66443094 </i>
   </energy>
  </scstep>
  <scstep>
   <time name="dav">  279.35   40.05</time>
   <time name="total">  289.78   42.21</time>
   <dipole>
    <v name="dipole">      0.00000000       0.00000000       0.05156800 </v>
    <i name="Tr[quadrupol]">  -7046.82706178 </i>
    <i name="Echarged">      0.00000000 </i>
    <i name="Edipol_quadrupol">      0.00000000 </i>
    <i name="Eion">      0.00000000 </i>
   </dipole>
   <energy>
    <i name="e_fr_energy">   -504.94384160 </i>
    <i name="e_wo_entrp">   -504.94384160 </i>
    <i name="e_0_energy">   -504.94384160 </i>
   </energy>
  </scstep>
  <scstep>
   <time name="dav">  281.42   40.34</time>
   <time name="total">  291.79   42.52</time>
   <dipole>
    <v name="dipole">      0.00000000       0.00000000       0.07401913 </v>
    <i name="Tr[quadrupol]">  -7047.16773719 </i>
    <i name="Echarged">      0.00000000 </i>
    <i name="Edipol_quadrupol">      0.00000000 </i>
    <i name="Eion">      0.00000000 </i>
   </dipole>
   <energy>
    <i name="e_fr_energy">   -505.01120401 </i>
    <i name="e_wo_entrp">   -505.01120401 </i>
    <i name="e_0_energy">   -505.01120401 </i>
   </energy>
  </scstep>
  <scstep>
   <time name="dav">  272.42   39.04</time>
   <time name="total">  282.78   41.20</time>
   <dipole>
    <v name="dipole">      0.00000000       0.00000000       0.08684997 </v>
    <i name="Tr[quadrupol]">  -7047.34571614 </i>
    <i name="Echarged">      0.00000000 </i>
    <i name="Edipol_quadrupol">      0.00000000 </i>
    <i name="Eion">      0.00000000 </i>
   </dipole>
   <energy>
    <i name="e_fr_energy">   -505.04650297 </i>
    <i name="e_wo_entrp">   -505.04650297 </i>
    <i name="e_0_energy">   -505.04650297 </i>
   </energy>
  </scstep>
  <scstep>
   <time name="dav">  287.67   41.23</time>
   <time name="total">  297.99   43.40</time>
   <dipole>
    <v name="dipole">      0.00000000       0.00000000       0.09364292 </v>
    <i name="Tr[quadrupol]">  -7047.32096912 </i>
    <i name="Echarged">      0.00000000 </i>
    <i name="Edipol_quadrupol">      0.00000000 </i>
    <i name="Eion">      0.00000000 </i>
   </dipole>
   <energy>
    <i name="e_fr_energy">   -505.09775671 </i>
    <i name="e_wo_entrp">   -505.09775671 </i>
    <i name="e_0_energy">   -505.09775671 </i>
   </energy>
  </scstep>
  <scstep>
   <time name="dav">  255.02   36.55</time>
   <time name="total">  265.56   38.74</time>
   <dipole>
    <v name="dipole">      0.00000000       0.00000000       0.07930915 </v>
    <i name="Tr[quadrupol]">  -7047.05680365 </i>
    <i name="Echarged">      0.00000000 </i>
    <i name="Edipol_quadrupol">      0.00000000 </i>
    <i name="Eion">      0.00000000 </i>
   </dipole>
   <energy>
    <i name="e_fr_energy">   -505.09702580 </i>
    <i name="e_wo_entrp">   -505.09702580 </i>
    <i name="e_0_energy">   -505.09702580 </i>
   </energy>
  </scstep>
  <scstep>
   <time name="dav">  264.51   37.90</time>
   <time name="total">  275.00   40.08</time>
   <dipole>
    <v name="dipole">      0.00000000       0.00000000       0.07150264 </v>
    <i name="Tr[quadrupol]">  -7046.81676328 </i>
    <i name="Echarged">      0.00000000 </i>
    <i name="Edipol_quadrupol">      0.00000000 </i>
    <i name="Eion">      0.00000000 </i>
   </dipole>
   <energy>
    <i name="e_fr_energy">   -505.08782927 </i>
    <i name="e_wo_entrp">   -505.08782927 </i>
    <i name="e_0_energy">   -505.08782927 </i>
   </energy>
  </scstep>
  <scstep>
   <time name="dav">  280.06   40.18</time>
   <time name="total">  290.57   42.36</time>
   <dipole>
    <v name="dipole">      0.00000000       0.00000000       0.07012904 </v>
    <i name="Tr[quadrupol]">  -7046.72374511 </i>
    <i name="Echarged">      0.00000000 </i>
    <i name="Edipol_quadrupol">      0.00000000 </i>
    <i name="Eion">      0.00000000 </i>
   </dipole>
   <energy>
    <i name="e_fr_energy">   -505.07432532 </i>
    <i name="e_wo_entrp">   -505.07432532 </i>
    <i name="e_0_energy">   -505.07432532 </i>
   </energy>
  </scstep>
  <scstep>
   <time name="dav">  283.90   40.73</time>
   <time name="total">  294.35   42.92</time>
   <dipole>
    <v name="dipole">      0.00000000       0.00000000       0.07607346 </v>
    <i name="Tr[quadrupol]">  -7046.72146460 </i>
    <i name="Echarged">      0.00000000 </i>
    <i name="Edipol_quadrupol">      0.00000000 </i>
    <i name="Eion">      0.00000000 </i>
   </dipole>
   <energy>
    <i name="e_fr_energy">   -505.07725941 </i>
    <i name="e_wo_entrp">   -505.07725941 </i>
    <i name="e_0_energy">   -505.07725941 </i>
   </energy>
  </scstep>
  <scstep>
   <time name="dav">  278.84   40.06</time>
   <time name="total">  289.40   42.27</time>
   <dipole>
    <v name="dipole">      0.00000000       0.00000000       0.07595828 </v>
    <i name="Tr[quadrupol]">  -7046.57636359 </i>
    <i name="Echarged">      0.00000000 </i>
    <i name="Edipol_quadrupol">      0.00000000 </i>
    <i name="Eion">      0.00000000 </i>
   </dipole>
   <energy>
    <i name="e_fr_energy">   -505.08305083 </i>
    <i name="e_wo_entrp">   -505.08305083 </i>
    <i name="e_0_energy">   -505.08305083 </i>
   </energy>
  </scstep>
  <scstep>
   <time name="dav">  270.80   38.92</time>
   <time name="total">  281.42   41.12</time>
   <dipole>
    <v name="dipole">      0.00000000       0.00000000       0.07690877 </v>
    <i name="Tr[quadrupol]">  -7046.43466616 </i>
    <i name="Echarged">      0.00000000 </i>
    <i name="Edipol_quadrupol">      0.00000000 </i>
    <i name="Eion">      0.00000000 </i>
   </dipole>
   <energy>
    <i name="e_fr_energy">   -505.08561073 </i>
    <i name="e_wo_entrp">   -505.08561073 </i>
    <i name="e_0_energy">   -505.08561073 </i>
   </energy>
  </scstep>
  <scstep>
   <time name="dav">  271.56   39.04</time>
   <time name="total">  282.23   41.25</time>
   <dipole>
    <v name="dipole">      0.00000000       0.00000000       0.07367627 </v>
    <i name="Tr[quadrupol]">  -7046.38173777 </i>
    <i name="Echarged">      0.00000000 </i>
    <i name="Edipol_quadrupol">      0.00000000 </i>
    <i name="Eion">      0.00000000 </i>
   </dipole>
   <energy>
    <i name="e_fr_energy">   -505.08588048 </i>
    <i name="e_wo_entrp">   -505.08588048 </i>
    <i name="e_0_energy">   -505.08588048 </i>
   </energy>
  </scstep>
  <scstep>
   <time name="dav">  289.32   41.59</time>
   <time name="total">  299.67   43.79</time>
   <dipole>
    <v name="dipole">      0.00000000       0.00000000       0.06729312 </v>
    <i name="Tr[quadrupol]">  -7046.37704564 </i>
    <i name="Echarged">      0.00000000 </i>
    <i name="Edipol_quadrupol">      0.00000000 </i>
    <i name="Eion">      0.00000000 </i>
   </dipole>
   <energy>
    <i name="e_fr_energy">   -505.08659655 </i>
    <i name="e_wo_entrp">   -505.08659655 </i>
    <i name="e_0_energy">   -505.08659655 </i>
   </energy>
  </scstep>
  <scstep>
   <time name="dav">  270.18   38.79</time>
   <time name="total">  280.88   40.99</time>
   <dipole>
    <v name="dipole">      0.00000000       0.00000000       0.06305787 </v>
    <i name="Tr[quadrupol]">  -7046.37649080 </i>
    <i name="Echarged">      0.00000000 </i>
    <i name="Edipol_quadrupol">      0.00000000 </i>
    <i name="Eion">      0.00000000 </i>
   </dipole>
   <energy>
    <i name="e_fr_energy">   -505.08653023 </i>
    <i name="e_wo_entrp">   -505.08653023 </i>
    <i name="e_0_energy">   -505.08653023 </i>
   </energy>
  </scstep>
  <scstep>
   <time name="dav">  257.73   36.92</time>
   <time name="total">  268.48   39.14</time>
   <dipole>
    <v name="dipole">      0.00000000       0.00000000       0.06335358 </v>
    <i name="Tr[quadrupol]">  -7046.35339421 </i>
    <i name="Echarged">      0.00000000 </i>
    <i name="Edipol_quadrupol">      0.00000000 </i>
    <i name="Eion">      0.00000000 </i>
   </dipole>
   <energy>
    <i name="e_fr_energy">   -505.08590135 </i>
    <i name="e_wo_entrp">   -505.08590135 </i>
    <i name="e_0_energy">   -505.08590135 </i>
   </energy>
  </scstep>
  <scstep>
   <time name="dav">  300.01   43.00</time>
   <time name="total">  310.83   45.22</time>
   <dipole>
    <v name="dipole">      0.00000000       0.00000000       0.06357001 </v>
    <i name="Tr[quadrupol]">  -7046.33117941 </i>
    <i name="Echarged">      0.00000000 </i>
    <i name="Edipol_quadrupol">      0.00000000 </i>
    <i name="Eion">      0.00000000 </i>
   </dipole>
   <energy>
    <i name="e_fr_energy">   -505.08578570 </i>
    <i name="e_wo_entrp">   -505.08578570 </i>
    <i name="e_0_energy">   -505.08578570 </i>
   </energy>
  </scstep>
  <scstep>
   <time name="dav">  280.32   40.24</time>
   <time name="total">  291.16   42.48</time>
   <dipole>
    <v name="dipole">      0.00000000       0.00000000       0.06411971 </v>
    <i name="Tr[quadrupol]">  -7046.31563793 </i>
    <i name="Echarged">      0.00000000 </i>
    <i name="Edipol_quadrupol">      0.00000000 </i>
    <i name="Eion">      0.00000000 </i>
   </dipole>
   <energy>
    <i name="e_fr_energy">   -505.08677460 </i>
    <i name="e_wo_entrp">   -505.08677460 </i>
    <i name="e_0_energy">   -505.08677460 </i>
   </energy>
  </scstep>
  <scstep>
   <time name="dav">  269.94   38.68</time>
   <time name="total">  280.64   40.91</time>
   <dipole>
    <v name="dipole">      0.00000000       0.00000000       0.06201451 </v>
    <i name="Tr[quadrupol]">  -7046.28897671 </i>
    <i name="Echarged">      0.00000000 </i>
    <i name="Edipol_quadrupol">      0.00000000 </i>
    <i name="Eion">      0.00000000 </i>
   </dipole>
   <energy>
    <i name="e_fr_energy">   -505.08751472 </i>
    <i name="e_wo_entrp">   -505.08751472 </i>
    <i name="e_0_energy">   -505.08751472 </i>
   </energy>
  </scstep>
  <scstep>
   <time name="dav">  275.58   39.57</time>
   <time name="total">  286.56   41.81</time>
   <dipole>
    <v name="dipole">      0.00000000       0.00000000       0.06166895 </v>
    <i name="Tr[quadrupol]">  -7046.28088471 </i>
    <i name="Echarged">      0.00000000 </i>
    <i name="Edipol_quadrupol">      0.00000000 </i>
    <i name="Eion">      0.00000000 </i>
   </dipole>
   <energy>
    <i name="e_fr_energy">   -505.08771286 </i>
    <i name="e_wo_entrp">   -505.08771286 </i>
    <i name="e_0_energy">   -505.08771286 </i>
   </energy>
  </scstep>
  <scstep>
   <time name="dav">  294.29   42.20</time>
   <time name="total">  305.11   44.45</time>
   <dipole>
    <v name="dipole">      0.00000000       0.00000000       0.06271080 </v>
    <i name="Tr[quadrupol]">  -7046.27255580 </i>
    <i name="Echarged">      0.00000000 </i>
    <i name="Edipol_quadrupol">      0.00000000 </i>
    <i name="Eion">      0.00000000 </i>
   </dipole>
   <energy>
    <i name="e_fr_energy">   -505.08762478 </i>
    <i name="e_wo_entrp">   -505.08762478 </i>
    <i name="e_0_energy">   -505.08762478 </i>
   </energy>
  </scstep>
  <scstep>
   <time name="dav">  268.40   38.45</time>
   <time name="total">  279.25   40.70</time>
   <dipole>
    <v name="dipole">      0.00000000       0.00000000       0.06272467 </v>
    <i name="Tr[quadrupol]">  -7046.27107436 </i>
    <i name="Echarged">      0.00000000 </i>
    <i name="Edipol_quadrupol">      0.00000000 </i>
    <i name="Eion">      0.00000000 </i>
   </dipole>
   <energy>
    <i name="e_fr_energy">   -505.08765225 </i>
    <i name="e_wo_entrp">   -505.08765225 </i>
    <i name="e_0_energy">   -505.08765225 </i>
   </energy>
  </scstep>
  <scstep>
   <time name="dav">  235.71   33.77</time>
   <time name="total">  246.71   36.02</time>
   <dipole>
    <v name="dipole">      0.00000000       0.00000000       0.06319685 </v>
    <i name="Tr[quadrupol]">  -7046.26762225 </i>
    <i name="Echarged">      0.00000000 </i>
    <i name="Edipol_quadrupol">      0.00000000 </i>
    <i name="Eion">      0.00000000 </i>
   </dipole>
   <energy>
    <i name="e_fr_energy">   -505.08767729 </i>
    <i name="e_wo_entrp">   -505.08767729 </i>
    <i name="e_0_energy">   -505.08767729 </i>
   </energy>
  </scstep>
  <scstep>
   <time name="dav">  274.13   39.31</time>
   <time name="total">  285.03   41.56</time>
   <dipole>
    <v name="dipole">      0.00000000       0.00000000       0.06271323 </v>
    <i name="Tr[quadrupol]">  -7046.28061508 </i>
    <i name="Echarged">      0.00000000 </i>
    <i name="Edipol_quadrupol">      0.00000000 </i>
    <i name="Eion">      0.00000000 </i>
   </dipole>
   <energy>
    <i name="e_fr_energy">   -505.08773021 </i>
    <i name="e_wo_entrp">   -505.08773021 </i>
    <i name="e_0_energy">   -505.08773021 </i>
   </energy>
  </scstep>
  <scstep>
   <time name="dav">  250.58   35.95</time>
   <time name="total">  261.58   38.21</time>
   <dipole>
    <v name="dipole">      0.00000000       0.00000000       0.06276760 </v>
    <i name="Tr[quadrupol]">  -7046.28122768 </i>
    <i name="Echarged">      0.00000000 </i>
    <i name="Edipol_quadrupol">      0.00000000 </i>
    <i name="Eion">      0.00000000 </i>
   </dipole>
   <energy>
    <i name="e_fr_energy">   -505.08777845 </i>
    <i name="e_wo_entrp">   -505.08777845 </i>
    <i name="e_0_energy">   -505.08777845 </i>
   </energy>
  </scstep>
  <scstep>
   <time name="dav">  173.18   27.48</time>
   <time name="total">  184.29   29.75</time>
   <dipole>
    <v name="dipole">      0.00000000       0.00000000       0.06274755 </v>
    <i name="Tr[quadrupol]">  -7046.27986587 </i>
    <i name="Echarged">      0.00000000 </i>
    <i name="Edipol_quadrupol">      0.00000000 </i>
    <i name="Eion">      0.00000000 </i>
   </dipole>
   <energy>
    <i name="e_fr_energy">   -505.08776411 </i>
    <i name="e_wo_entrp">   -505.08776411 </i>
    <i name="e_0_energy">   -505.08776411 </i>
   </energy>
  </scstep>
  <scstep>
   <time name="dav">  148.33   23.70</time>
   <time name="total">  156.78   25.38</time>
   <dipole>
    <v name="dipole">      0.00000000       0.00000000       0.06242078 </v>
    <i name="Tr[quadrupol]">  -7046.28039239 </i>
    <i name="Echarged">      0.00000000 </i>
    <i name="Edipol_quadrupol">      0.00000000 </i>
    <i name="Eion">      0.00000000 </i>
   </dipole>
   <energy>
    <i name="alphaZ">   1800.92603140 </i>
    <i name="ewald"> 210413.12978981 </i>
    <i name="hartreedc">-260650.23936958 </i>
    <i name="XCdc">    950.17683526 </i>
    <i name="pawpsdc">  54627.28684147 </i>
    <i name="pawaedc"> -55708.11674578 </i>
    <i name="eentropy">      0.00000000 </i>
    <i name="bandstr">  -4143.92880521 </i>
    <i name="atom">  52205.67765473 </i>
    <i name="e_fr_energy">   -505.08776791 </i>
    <i name="e_wo_entrp">   -505.08776791 </i>
    <i name="e_0_energy">   -505.08776791 </i>
   </energy>
  </scstep>
  <structure>
   <crystal>
    <varray name="basis" >
     <v>       8.53269958       0.00000000       0.00000000 </v>
     <v>      -0.00051933       8.49699972       0.00000000 </v>
     <v>       0.00000000       0.00000000      23.59499931 </v>
    </varray>
    <i name="volume">   1710.69280467 </i>
    <varray name="rec_basis" >
     <v>       0.11719620       0.00000716       0.00000000 </v>
     <v>       0.00000000       0.11768860       0.00000000 </v>
     <v>       0.00000000       0.00000000       0.04238186 </v>
    </varray>
   </crystal>
   <varray name="positions" >
    <v>       0.00086000       0.99993000       0.24271000 </v>
    <v>       0.16629362       0.16431183       0.30348632 </v>
    <v>       0.50258983       0.16701150       0.30348611 </v>
    <v>       0.66822000       0.00107000       0.24272000 </v>
    <v>       0.83556225       0.16882101       0.30331760 </v>
    <v>       0.00044000       0.33497000       0.24240000 </v>
    <v>       0.16733478       0.50276511       0.30394695 </v>
    <v>       0.33469000       0.33305000       0.24267000 </v>
    <v>       0.50288218       0.49983814       0.30272345 </v>
    <v>       0.83212209       0.50226955       0.30205048 </v>
    <v>       0.16857802       0.83423926       0.30483494 </v>
    <v>       0.33342000       0.66555000       0.24261000 </v>
    <v>       0.83691421       0.83413972       0.30332469 </v>
    <v>       0.00064000       0.00119000       0.00199000 </v>
    <v>       0.99721599       0.00394819       0.36140875 </v>
    <v>       0.16843000       0.16962000       0.06269000 </v>
    <v>       0.33460000       0.00297000       0.00254000 </v>
    <v>       0.33701312       0.00536794       0.36249781 </v>
    <v>       0.50463000       0.16850000       0.06120000 </v>
    <v>       0.83272000       0.16670000       0.06193000 </v>
    <v>       0.00004000       0.33467000       0.00213000 </v>
    <v>       0.00792554       0.33319628       0.36075015 </v>
    <v>       0.16757000       0.49895000       0.06268000 </v>
    <v>       0.50099000       0.49896000       0.06206000 </v>
    <v>       0.83393000       0.50234000       0.06235000 </v>
    <v>       0.00121000       0.66785000       0.00188000 </v>
    <v>       0.99463189       0.66374227       0.36064385 </v>
    <v>       0.16792000       0.83462000       0.06228000 </v>
    <v>       0.33437000       0.66664000       0.00225000 </v>
    <v>       0.34052882       0.66333720       0.36160367 </v>
    <v>       0.50152000       0.83563000       0.06217000 </v>
    <v>       0.66753000       0.66705000       0.00175000 </v>
    <v>       0.66373958       0.67926095       0.36130925 </v>
    <v>       0.83293000       0.83584000       0.06235000 </v>
    <v>       0.00121000       0.00098000       0.12225000 </v>
    <v>       0.16700000       0.16811000       0.18239000 </v>
    <v>       0.33470000       0.00227000       0.12192000 </v>
    <v>       0.50174000       0.16716000       0.18263000 </v>
    <v>       0.83421000       0.16639000       0.18283000 </v>
    <v>       0.16964000       0.49868000       0.18209000 </v>
    <v>       0.50219000       0.50081000       0.18317000 </v>
    <v>       0.66741000       0.33395000       0.12233000 </v>
    <v>       0.83134000       0.50253000       0.18283000 </v>
    <v>       0.00132000       0.66795000       0.12253000 </v>
    <v>       0.16898000       0.83509000       0.18243000 </v>
    <v>       0.33446000       0.66703000       0.12223000 </v>
    <v>       0.49971000       0.83538000       0.18278000 </v>
    <v>       0.66698000       0.66840000       0.12259000 </v>
    <v>       0.83488000       0.83403000       0.18294000 </v>
    <v>       0.33558000       0.99863000       0.24353000 </v>
    <v>       0.66801000       0.33262000       0.24229000 </v>
    <v>       0.00448000       0.66739000       0.24217000 </v>
    <v>       0.49556735       0.83404914       0.30120377 </v>
    <v>       0.66521000       0.67351000       0.24327000 </v>
    <v>       0.66620000       0.99680000       0.00000000 </v>
    <v>       0.66787532       0.98978579       0.36338137 </v>
    <v>       0.33213000       0.33386000       0.00135000 </v>
    <v>       0.32455453       0.33256390       0.36435065 </v>
    <v>       0.67040000       0.33673000       0.00321000 </v>
    <v>       0.66728000       0.99998000       0.12246000 </v>
    <v>       0.99806000       0.33495000       0.12235000 </v>
    <v>       0.33675000       0.33238000       0.12261000 </v>
    <v>       0.67241174       0.34177378       0.39357448 </v>
   </varray>
  </structure>
  <varray name="forces" >
   <v>       0.02563992       0.00549928      -0.18022500 </v>
   <v>       0.00363799       0.01055407      -0.01021216 </v>
   <v>      -0.01422636      -0.00620249       0.01423469 </v>
   <v>       0.07271584       0.03826094      -0.12969438 </v>
   <v>      -0.00725095      -0.00082166       0.00700970 </v>
   <v>       0.05629911       0.02868176      -0.12244904 </v>
   <v>      -0.00017370      -0.00822515       0.00759393 </v>
   <v>      -0.03614233      -0.00146745      -0.10124270 </v>
   <v>       0.00094776       0.00162767       0.02414056 </v>
   <v>      -0.00101060       0.00253829       0.00914973 </v>
   <v>      -0.03192839      -0.00472863      -0.00323724 </v>
   <v>      -0.07914510      -0.09225575      -0.17357530 </v>
   <v>       0.00522469       0.00431158       0.00639700 </v>
   <v>       0.02653405      -0.04049209       0.26077796 </v>
   <v>       0.00005178      -0.00930029       0.01312415 </v>
   <v>      -0.33836037      -0.27277672       0.01242665 </v>
   <v>      -0.02645991      -0.03110709       0.40327276 </v>
   <v>       0.01516739       0.00989242       0.01191902 </v>
   <v>      -0.21104797      -0.16295890       0.56633446 </v>
   <v>       0.42658007       0.15386181       0.19153664 </v>
   <v>      -0.10347686       0.00536656       0.40076874 </v>
   <v>      -0.00391664       0.00718249       0.00694837 </v>
   <v>      -0.27928690       0.30167523      -0.00025246 </v>
   <v>       0.10962030       0.49026096       0.19920209 </v>
   <v>       0.13686700       0.10957803      -0.09797221 </v>
   <v>       0.12925954       0.04692614       0.13904985 </v>
   <v>       0.00818717       0.01362499      -0.00336338 </v>
   <v>      -0.04666967      -0.00342406      -0.40131545 </v>
   <v>      -0.10406407       0.01169717       0.23186084 </v>
   <v>      -0.00726304      -0.01135922       0.00500354 </v>
   <v>      -0.27650405      -0.34811514       0.02152783 </v>
   <v>      -0.03049999      -0.10025187       0.42293749 </v>
   <v>      -0.00462346      -0.02672745       0.01307871 </v>
   <v>       0.35715723      -0.35391226       0.00381565 </v>
   <v>       0.01033468       0.14453530      -0.01915878 </v>
   <v>      -0.03511865      -0.01115287       0.07125582 </v>
   <v>       0.07835193       0.06713283       0.05190302 </v>
   <v>      -0.08090211      -0.04053912       0.13406188 </v>
   <v>       0.05653216      -0.00802065       0.11661867 </v>
   <v>      -0.02100229      -0.00573509       0.21300535 </v>
   <v>       0.01499305       0.05965791       0.10197442 </v>
   <v>       0.05663069      -0.00887489       0.01242437 </v>
   <v>       0.04521249       0.06025570       0.11262420 </v>
   <v>      -0.03277356      -0.07106391      -0.05823222 </v>
   <v>       0.01006764       0.04209872       0.06324941 </v>
   <v>       0.12493757      -0.02504212      -0.03780249 </v>
   <v>       0.00795288      -0.01868614       0.00234498 </v>
   <v>      -0.06912216      -0.05812045       0.07227945 </v>
   <v>       0.00865211      -0.03694742       0.18927139 </v>
   <v>       0.13835004       0.00830815      -0.03920799 </v>
   <v>      -0.07845757      -0.11592244       0.10660895 </v>
   <v>       0.01104326      -0.04782131      -0.20070263 </v>
   <v>      -0.00167420       0.02739812      -0.02974976 </v>
   <v>      -0.12411089       0.11286362      -0.04562572 </v>
   <v>       0.07458170       0.43500894      -0.78970257 </v>
   <v>      -0.00167530       0.02214152      -0.00538796 </v>
   <v>       0.32503482       0.01099125      -0.67586445 </v>
   <v>       0.00495248      -0.00237944      -0.00733721 </v>
   <v>      -0.29055281      -0.35153997      -0.23204374 </v>
   <v>      -0.08603987       0.17420223      -0.34289891 </v>
   <v>      -0.04379051      -0.05006854      -0.06358964 </v>
   <v>       0.12502099      -0.07511504      -0.46343083 </v>
   <v>       0.00073196      -0.00497805       0.01454193 </v>
  </varray>
  <varray name="stress" >
   <v>     -18.99774581       0.60449045       0.02821987 </v>
   <v>       0.60449113     -18.86948071       0.10454837 </v>
   <v>       0.02821964       0.10454736      -3.37284066 </v>
  </varray>
  <energy>
   <i name="e_fr_energy">   -505.08776791 </i>
   <i name="e_wo_entrp">   -505.08776791 </i>
   <i name="e_0_energy">   -505.08776791 </i>
  </energy>
  <time name="totalsc">13882.95 2059.98</time>
  <eigenvalues>
   <array>
    <dimension dim="1">band</dimension>
    <dimension dim="2">kpoint</dimension>
    <dimension dim="3">spin</dimension>
    <field>eigene</field>
    <field>occ</field>
    <set>
     <set comment="spin 1">
      <set comment="kpoint 1">
       <r>  -42.8017    1.0000 </r>
       <r>  -42.7874    1.0000 </r>
       <r>  -42.7697    1.0000 </r>
       <r>  -42.7614    1.0000 </r>
       <r>  -42.7417    1.0000 </r>
       <r>  -42.7201    1.0000 </r>
       <r>  -42.7054    1.0000 </r>
       <r>  -42.6970    1.0000 </r>
       <r>  -42.6909    1.0000 </r>
       <r>  -42.3167    1.0000 </r>
       <r>  -42.2383    1.0000 </r>
       <r>  -42.1910    1.0000 </r>
       <r>  -41.9572    1.0000 </r>
       <r>  -41.9306    1.0000 </r>
       <r>  -41.9233    1.0000 </r>
       <r>  -41.9064    1.0000 </r>
       <r>  -41.8605    1.0000 </r>
       <r>  -41.8351    1.0000 </r>
       <r>  -41.8293    1.0000 </r>
       <r>  -41.8263    1.0000 </r>
       <r>  -41.8228    1.0000 </r>
       <r>  -41.8037    1.0000 </r>
       <r>  -41.7847    1.0000 </r>
       <r>  -41.7830    1.0000 </r>
       <r>  -41.7828    1.0000 </r>
       <r>  -41.7667    1.0000 </r>
       <r>  -41.7539    1.0000 </r>
       <r>  -41.7453    1.0000 </r>
       <r>  -41.7357    1.0000 </r>
       <r>  -41.7211    1.0000 </r>
       <r>  -41.7182    1.0000 </r>
       <r>  -41.7072    1.0000 </r>
       <r>  -41.6929    1.0000 </r>
       <r>  -40.3445    1.0000 </r>
       <r>  -40.2997    1.0000 </r>
       <r>  -40.2129    1.0000 </r>
       <r>  -40.2052    1.0000 </r>
       <r>  -40.1936    1.0000 </r>
       <r>  -40.0680    1.0000 </r>
       <r>  -15.5308    1.0000 </r>
       <r>  -15.5203    1.0000 </r>
       <r>  -15.5185    1.0000 </r>
       <r>  -15.5067    1.0000 </r>
       <r>  -15.4835    1.0000 </r>
       <r>   -7.8954    1.0000 </r>
       <r>   -7.1428    1.0000 </r>
       <r>   -6.1210    1.0000 </r>
       <r>   -5.2904    1.0000 </r>
       <r>   -5.2225    1.0000 </r>
       <r>   -5.2166    1.0000 </r>
       <r>   -5.1880    1.0000 </r>
       <r>   -4.8823    1.0000 </r>
       <r>   -4.6482    1.0000 </r>
       <r>   -4.6058    1.0000 </r>
       <r>   -4.5734    1.0000 </r>
       <r>   -4.4822    1.0000 </r>
       <r>   -4.1325    1.0000 </r>
       <r>   -4.1294    1.0000 </r>
       <r>   -4.1060    1.0000 </r>
       <r>   -4.0969    1.0000 </r>
       <r>   -4.0745    1.0000 </r>
       <r>   -4.0503    1.0000 </r>
       <r>   -4.0270    1.0000 </r>
       <r>   -3.9608    1.0000 </r>
       <r>   -3.8651    1.0000 </r>
       <r>   -3.8421    1.0000 </r>
       <r>   -3.7357    1.0000 </r>
       <r>   -3.6606    1.0000 </r>
       <r>   -3.6465    1.0000 </r>
       <r>   -3.5968    1.0000 </r>
       <r>   -3.5429    1.0000 </r>
       <r>   -3.4978    1.0000 </r>
       <r>   -3.4546    1.0000 </r>
       <r>   -3.4255    1.0000 </r>
       <r>   -3.4079    1.0000 </r>
       <r>   -3.3985    1.0000 </r>
       <r>   -3.3760    1.0000 </r>
       <r>   -3.3666    1.0000 </r>
       <r>   -3.3579    1.0000 </r>
       <r>   -3.3405    1.0000 </r>
       <r>   -3.3263    1.0000 </r>
       <r>   -3.3017    1.0000 </r>
       <r>   -3.2855    1.0000 </r>
       <r>   -3.2677    1.0000 </r>
       <r>   -3.2587    1.0000 </r>
       <r>   -3.2297    1.0000 </r>
       <r>   -3.2285    1.0000 </r>
       <r>   -3.2259    1.0000 </r>
       <r>   -3.2065    1.0000 </r>
       <r>   -3.1604    1.0000 </r>
       <r>   -3.1467    1.0000 </r>
       <r>   -3.1309    1.0000 </r>
       <r>   -3.0332    1.0000 </r>
       <r>   -2.9798    1.0000 </r>
       <r>   -2.9695    1.0000 </r>
       <r>   -2.9513    1.0000 </r>
[...]
       <r>   -39.0350     0.0000    39.0000 </r>
       <r>   -38.8640     0.0000    39.0000 </r>
       <r>   -38.6929     0.0000    39.0000 </r>
       <r>   -38.5219     0.0000    39.0000 </r>
       <r>   -38.3508     0.0000    39.0000 </r>
       <r>   -38.1798     0.0000    39.0000 </r>
       <r>   -38.0087     0.0000    39.0000 </r>
       <r>   -37.8376     0.0000    39.0000 </r>
       <r>   -37.6666     0.0000    39.0000 </r>
       <r>   -37.4955     0.0000    39.0000 </r>
       <r>   -37.3245     0.0000    39.0000 </r>
       <r>   -37.1534     0.0000    39.0000 </r>
       <r>   -36.9824     0.0000    39.0000 </r>
       <r>   -36.8113     0.0000    39.0000 </r>
       <r>   -36.6402     0.0000    39.0000 </r>
       <r>   -36.4692     0.0000    39.0000 </r>
       <r>   -36.2981     0.0000    39.0000 </r>
       <r>   -36.1271     0.0000    39.0000 </r>
       <r>   -35.9560     0.0000    39.0000 </r>
       <r>   -35.7850     0.0000    39.0000 </r>
       <r>   -35.6139     0.0000    39.0000 </r>
       <r>   -35.4428     0.0000    39.0000 </r>
       <r>   -35.2718     0.0000    39.0000 </r>
       <r>   -35.1007     0.0000    39.0000 </r>
       <r>   -34.9297     0.0000    39.0000 </r>
       <r>   -34.7586     0.0000    39.0000 </r>
       <r>   -34.5876     0.0000    39.0000 </r>
       <r>   -34.4165     0.0000    39.0000 </r>
       <r>   -34.2454     0.0000    39.0000 </r>
       <r>   -34.0744     0.0000    39.0000 </r>
       <r>   -33.9033     0.0000    39.0000 </r>
       <r>   -33.7323     0.0000    39.0000 </r>
       <r>   -33.5612     0.0000    39.0000 </r>
       <r>   -33.3901     0.0000    39.0000 </r>
       <r>   -33.2191     0.0000    39.0000 </r>
       <r>   -33.0480     0.0000    39.0000 </r>
       <r>   -32.8770     0.0000    39.0000 </r>
       <r>   -32.7059     0.0000    39.0000 </r>
       <r>   -32.5349     0.0000    39.0000 </r>
       <r>   -32.3638     0.0000    39.0000 </r>
       <r>   -32.1927     0.0000    39.0000 </r>
       <r>   -32.0217     0.0000    39.0000 </r>
       <r>   -31.8506     0.0000    39.0000 </r>
       <r>   -31.6796     0.0000    39.0000 </r>
       <r>   -31.5085     0.0000    39.0000 </r>
       <r>   -31.3375     0.0000    39.0000 </r>
       <r>   -31.1664     0.0000    39.0000 </r>
       <r>   -30.9953     0.0000    39.0000 </r>
       <r>   -30.8243     0.0000    39.0000 </r>
       <r>   -30.6532     0.0000    39.0000 </r>
       <r>   -30.4822     0.0000    39.0000 </r>
       <r>   -30.3111     0.0000    39.0000 </r>
       <r>   -30.1401     0.0000    39.0000 </r>
       <r>   -29.9690     0.0000    39.0000 </r>
       <r>   -29.7979     0.0000    39.0000 </r>
       <r>   -29.6269     0.0000    39.0000 </r>
       <r>   -29.4558     0.0000    39.0000 </r>
       <r>   -29.2848     0.0000    39.0000 </r>
       <r>   -29.1137     0.0000    39.0000 </r>
       <r>   -28.9427     0.0000    39.0000 </r>
       <r>   -28.7716     0.0000    39.0000 </r>
       <r>   -28.6005     0.0000    39.0000 </r>
       <r>   -28.4295     0.0000    39.0000 </r>
       <r>   -28.2584     0.0000    39.0000 </r>
       <r>   -28.0874     0.0000    39.0000 </r>
       <r>   -27.9163     0.0000    39.0000 </r>
       <r>   -27.7453     0.0000    39.0000 </r>
       <r>   -27.5742     0.0000    39.0000 </r>
       <r>   -27.4031     0.0000    39.0000 </r>
       <r>   -27.2321     0.0000    39.0000 </r>
       <r>   -27.0610     0.0000    39.0000 </r>
       <r>   -26.8900     0.0000    39.0000 </r>
       <r>   -26.7189     0.0000    39.0000 </r>
       <r>   -26.5479     0.0000    39.0000 </r>
       <r>   -26.3768     0.0000    39.0000 </r>
       <r>   -26.2057     0.0000    39.0000 </r>
       <r>   -26.0347     0.0000    39.0000 </r>
       <r>   -25.8636     0.0000    39.0000 </r>
       <r>   -25.6926     0.0000    39.0000 </r>
       <r>   -25.5215     0.0000    39.0000 </r>
       <r>   -25.3504     0.0000    39.0000 </r>
       <r>   -25.1794     0.0000    39.0000 </r>
       <r>   -25.0083     0.0000    39.0000 </r>
       <r>   -24.8373     0.0000    39.0000 </r>
       <r>   -24.6662     0.0000    39.0000 </r>
       <r>   -24.4952     0.0000    39.0000 </r>
       <r>   -24.3241     0.0000    39.0000 </r>
       <r>   -24.1530     0.0000    39.0000 </r>
       <r>   -23.9820     0.0000    39.0000 </r>
       <r>   -23.8109     0.0000    39.0000 </r>
       <r>   -23.6399     0.0000    39.0000 </r>
       <r>   -23.4688     0.0000    39.0000 </r>
       <r>   -23.2978     0.0000    39.0000 </r>
       <r>   -23.1267     0.0000    39.0000 </r>
       <r>   -22.9556     0.0000    39.0000 </r>
       <r>   -22.7846     0.0000    39.0000 </r>
       <r>   -22.6135     0.0000    39.0000 </r>
       <r>   -22.4425     0.0000    39.0000 </r>
       <r>   -22.2714     0.0000    39.0000 </r>
       <r>   -22.1004     0.0000    39.0000 </r>
       <r>   -21.9293     0.0000    39.0000 </r>
       <r>   -21.7582     0.0000    39.0000 </r>
       <r>   -21.5872     0.0000    39.0000 </r>
       <r>   -21.4161     0.0000    39.0000 </r>
       <r>   -21.2451     0.0000    39.0000 </r>
       <r>   -21.0740     0.0000    39.0000 </r>
       <r>   -20.9030     0.0000    39.0000 </r>
       <r>   -20.7319     0.0000    39.0000 </r>
       <r>   -20.5608     0.0000    39.0000 </r>
       <r>   -20.3898     0.0000    39.0000 </r>
       <r>   -20.2187     0.0000    39.0000 </r>
       <r>   -20.0477     0.0000    39.0000 </r>
       <r>   -19.8766     0.0000    39.0000 </r>
       <r>   -19.7056     0.0000    39.0000 </r>
       <r>   -19.5345     0.0000    39.0000 </r>
       <r>   -19.3634     0.0000    39.0000 </r>
       <r>   -19.1924     0.0000    39.0000 </r>
       <r>   -19.0213     0.0000    39.0000 </r>
       <r>   -18.8503     0.0000    39.0000 </r>
       <r>   -18.6792     0.0000    39.0000 </r>
       <r>   -18.5081     0.0000    39.0000 </r>
       <r>   -18.3371     0.0000    39.0000 </r>
       <r>   -18.1660     0.0000    39.0000 </r>
       <r>   -17.9950     0.0000    39.0000 </r>
       <r>   -17.8239     0.0000    39.0000 </r>
       <r>   -17.6529     0.0000    39.0000 </r>
       <r>   -17.4818     0.0000    39.0000 </r>
       <r>   -17.3107     0.0000    39.0000 </r>
       <r>   -17.1397     0.0000    39.0000 </r>
       <r>   -16.9686     0.0000    39.0000 </r>
       <r>   -16.7976     0.0000    39.0000 </r>
       <r>   -16.6265     0.0000    39.0000 </r>
       <r>   -16.4555     0.0000    39.0000 </r>
       <r>   -16.2844     0.0000    39.0000 </r>
       <r>   -16.1133     0.0000    39.0000 </r>
       <r>   -15.9423     0.0000    39.0000 </r>
       <r>   -15.7712     0.0000    39.0000 </r>
       <r>   -15.6002     0.0000    39.0000 </r>
       <r>   -15.4291    29.2299    44.0000 </r>
       <r>   -15.2581     0.0000    44.0000 </r>
       <r>   -15.0870     0.0000    44.0000 </r>
       <r>   -14.9159     0.0000    44.0000 </r>
       <r>   -14.7449     0.0000    44.0000 </r>
       <r>   -14.5738     0.0000    44.0000 </r>
       <r>   -14.4028     0.0000    44.0000 </r>
       <r>   -14.2317     0.0000    44.0000 </r>
       <r>   -14.0607     0.0000    44.0000 </r>
       <r>   -13.8896     0.0000    44.0000 </r>
       <r>   -13.7185     0.0000    44.0000 </r>
       <r>   -13.5475     0.0000    44.0000 </r>
       <r>   -13.3764     0.0000    44.0000 </r>
       <r>   -13.2054     0.0000    44.0000 </r>
       <r>   -13.0343     0.0000    44.0000 </r>
       <r>   -12.8633     0.0000    44.0000 </r>
       <r>   -12.6922     0.0000    44.0000 </r>
       <r>   -12.5211     0.0000    44.0000 </r>
       <r>   -12.3501     0.0000    44.0000 </r>
       <r>   -12.1790     0.0000    44.0000 </r>
       <r>   -12.0080     0.0000    44.0000 </r>
       <r>   -11.8369     0.0000    44.0000 </r>
       <r>   -11.6659     0.0000    44.0000 </r>
       <r>   -11.4948     0.0000    44.0000 </r>
       <r>   -11.3237     0.0000    44.0000 </r>
       <r>   -11.1527     0.0000    44.0000 </r>
       <r>   -10.9816     0.0000    44.0000 </r>
       <r>   -10.8106     0.0000    44.0000 </r>
       <r>   -10.6395     0.0000    44.0000 </r>
       <r>   -10.4684     0.0000    44.0000 </r>
       <r>   -10.2974     0.0000    44.0000 </r>
       <r>   -10.1263     0.0000    44.0000 </r>
       <r>    -9.9553     0.0000    44.0000 </r>
       <r>    -9.7842     0.0000    44.0000 </r>
       <r>    -9.6132     0.0000    44.0000 </r>
       <r>    -9.4421     0.0000    44.0000 </r>
       <r>    -9.2710     0.0000    44.0000 </r>
       <r>    -9.1000     0.0000    44.0000 </r>
       <r>    -8.9289     0.0000    44.0000 </r>
       <r>    -8.7579     0.0000    44.0000 </r>
       <r>    -8.5868     0.0000    44.0000 </r>
       <r>    -8.4158     0.0000    44.0000 </r>
       <r>    -8.2447     0.0000    44.0000 </r>
       <r>    -8.0736     0.0000    44.0000 </r>
       <r>    -7.9026     0.0000    44.0000 </r>
       <r>    -7.7315     5.8460    45.0000 </r>
       <r>    -7.5605     0.0000    45.0000 </r>
       <r>    -7.3894     0.0000    45.0000 </r>
       <r>    -7.2184     0.0000    45.0000 </r>
       <r>    -7.0473     0.0000    45.0000 </r>
       <r>    -6.8762     2.2063    45.2041 </r>
       <r>    -6.7052     1.7039    45.4858 </r>
       <r>    -6.5341     1.4128    45.7880 </r>
       <r>    -6.3631     1.4446    45.9787 </r>
       <r>    -6.1920     1.7544    46.3052 </r>
       <r>    -6.0210     1.4024    46.5753 </r>
       <r>    -5.8499     1.8998    47.0352 </r>
       <r>    -5.6788     4.4521    47.6408 </r>
       <r>    -5.5078     2.3391    48.2447 </r>
       <r>    -5.3367     2.5363    48.6408 </r>
       <r>    -5.1657     3.5825    49.1641 </r>
       <r>    -4.9946     5.5806    49.8540 </r>
       <r>    -4.8236     3.7966    50.8301 </r>
       <r>    -4.6525     4.0330    51.3545 </r>
       <r>    -4.4814     4.6514    52.1982 </r>
       <r>    -4.3104     4.4772    52.7975 </r>
       <r>    -4.1393     7.0360    53.8255 </r>
       <r>    -3.9683     9.7710    55.3323 </r>
       <r>    -3.7972     8.3242    56.6035 </r>
       <r>    -3.6262     6.2597    57.6080 </r>
       <r>    -3.4551    11.7869    58.9051 </r>
       <r>    -3.2840    14.2304    61.0576 </r>
       <r>    -3.1130    22.7063    63.9903 </r>
       <r>    -2.9419    17.1467    67.0386 </r>
       <r>    -2.7709    40.5844    71.3147 </r>
       <r>    -2.5998    21.1981    74.1587 </r>
       <r>    -2.4287    51.2794    78.1447 </r>
       <r>    -2.2577    47.0535    83.0785 </r>
       <r>    -2.0866    45.7703    88.6878 </r>
       <r>    -1.9156    66.3055    94.5826 </r>
       <r>    -1.7445    46.0191   100.0757 </r>
       <r>    -1.5735    66.8204   105.8882 </r>
       <r>    -1.4024    93.5261   113.5931 </r>
       <r>    -1.2313    93.8536   122.8553 </r>
       <r>    -1.0603    79.7773   131.1840 </r>
       <r>    -0.8892   105.0979   140.0609 </r>
       <r>    -0.7182    94.1809   149.1759 </r>
       <r>    -0.5471   109.8699   159.5812 </r>
       <r>    -0.3761   128.7743   170.6151 </r>
       <r>    -0.2050   119.9407   181.4215 </r>
       <r>    -0.0339    97.5801   191.8429 </r>
       <r>     0.1371    76.3790   199.3463 </r>
       <r>     0.3082    52.2007   206.0582 </r>
       <r>     0.4792    40.3837   211.8131 </r>
       <r>     0.6503    60.3740   216.8095 </r>
       <r>     0.8213    48.8180   221.6333 </r>
       <r>     0.9924    70.8961   227.9335 </r>
       <r>     1.1635   167.8181   235.5958 </r>
       <r>     1.3345    85.3515   244.9831 </r>
       <r>     1.5056   100.8823   254.2245 </r>
       <r>     1.6766   124.1651   265.6889 </r>
       <r>     1.8477   126.0949   277.9688 </r>
       <r>     2.0187   124.4292   290.2143 </r>
       <r>     2.1898   133.7872   304.6697 </r>
       <r>     2.3609   156.5236   320.6602 </r>
       <r>     2.5319   208.0579   337.1846 </r>
       <r>     2.7030   136.1406   351.4435 </r>
       <r>     2.8740    91.6598   361.5670 </r>
       <r>     3.0451    54.1020   368.0752 </r>
       <r>     3.2161    17.1242   371.8637 </r>
       <r>     3.3872     0.3654   372.0000 </r>
       <r>     3.5583     0.0000   372.0000 </r>
       <r>     3.7293     0.0000   372.0000 </r>
       <r>     3.9004     0.0000   372.0000 </r>
       <r>     4.0714     0.0000   372.0000 </r>
       <r>     4.2425     0.0000   372.0000 </r>
       <r>     4.4135     0.0000   372.0000 </r>
       <r>     4.5846     0.0000   372.0000 </r>
       <r>     4.7557     0.0000   372.0000 </r>
       <r>     4.9267     0.0000   372.0000 </r>
       <r>     5.0978     0.0000   372.0000 </r>
       <r>     5.2688     0.0000   372.0000 </r>
       <r>     5.4399     0.0000   372.0000 </r>
       <r>     5.6110     0.0000   372.0000 </r>
      </set>
     </set>
    </array>
   </total>
  </dos>
 </calculation>
 <structure name="finalpos" >
  <crystal>
   <varray name="basis" >
    <v>       8.53269958       0.00000000       0.00000000 </v>
    <v>      -0.00051933       8.49699972       0.00000000 </v>
    <v>       0.00000000       0.00000000      23.59499931 </v>
   </varray>
   <i name="volume">   1710.69280467 </i>
   <varray name="rec_basis" >
    <v>       0.11719620       0.00000716       0.00000000 </v>
    <v>       0.00000000       0.11768860       0.00000000 </v>
    <v>       0.00000000       0.00000000       0.04238186 </v>
   </varray>
  </crystal>
  <varray name="positions" >
   <v>       0.00086000       0.99993000       0.24271000 </v>
   <v>       0.16629362       0.16431183       0.30348632 </v>
   <v>       0.50258983       0.16701150       0.30348611 </v>
   <v>       0.66822000       0.00107000       0.24272000 </v>
   <v>       0.83556225       0.16882101       0.30331760 </v>
   <v>       0.00044000       0.33497000       0.24240000 </v>
   <v>       0.16733478       0.50276511       0.30394695 </v>
   <v>       0.33469000       0.33305000       0.24267000 </v>
   <v>       0.50288218       0.49983814       0.30272345 </v>
   <v>       0.83212209       0.50226955       0.30205048 </v>
   <v>       0.16857802       0.83423926       0.30483494 </v>
   <v>       0.33342000       0.66555000       0.24261000 </v>
   <v>       0.83691421       0.83413972       0.30332469 </v>
   <v>       0.00064000       0.00119000       0.00199000 </v>
   <v>       0.99721599       0.00394819       0.36140875 </v>
   <v>       0.16843000       0.16962000       0.06269000 </v>
   <v>       0.33460000       0.00297000       0.00254000 </v>
   <v>       0.33701312       0.00536794       0.36249781 </v>
   <v>       0.50463000       0.16850000       0.06120000 </v>
   <v>       0.83272000       0.16670000       0.06193000 </v>
   <v>       0.00004000       0.33467000       0.00213000 </v>
   <v>       0.00792554       0.33319628       0.36075015 </v>
   <v>       0.16757000       0.49895000       0.06268000 </v>
   <v>       0.50099000       0.49896000       0.06206000 </v>
   <v>       0.83393000       0.50234000       0.06235000 </v>
   <v>       0.00121000       0.66785000       0.00188000 </v>
   <v>       0.99463189       0.66374227       0.36064385 </v>
   <v>       0.16792000       0.83462000       0.06228000 </v>
   <v>       0.33437000       0.66664000       0.00225000 </v>
   <v>       0.34052882       0.66333720       0.36160367 </v>
   <v>       0.50152000       0.83563000       0.06217000 </v>
   <v>       0.66753000       0.66705000       0.00175000 </v>
   <v>       0.66373958       0.67926095       0.36130925 </v>
   <v>       0.83293000       0.83584000       0.06235000 </v>
   <v>       0.00121000       0.00098000       0.12225000 </v>
   <v>       0.16700000       0.16811000       0.18239000 </v>
   <v>       0.33470000       0.00227000       0.12192000 </v>
   <v>       0.50174000       0.16716000       0.18263000 </v>
   <v>       0.83421000       0.16639000       0.18283000 </v>
   <v>       0.16964000       0.49868000       0.18209000 </v>
   <v>       0.50219000       0.50081000       0.18317000 </v>
   <v>       0.66741000       0.33395000       0.12233000 </v>
   <v>       0.83134000       0.50253000       0.18283000 </v>
   <v>       0.00132000       0.66795000       0.12253000 </v>
   <v>       0.16898000       0.83509000       0.18243000 </v>
   <v>       0.33446000       0.66703000       0.12223000 </v>
   <v>       0.49971000       0.83538000       0.18278000 </v>
   <v>       0.66698000       0.66840000       0.12259000 </v>
   <v>       0.83488000       0.83403000       0.18294000 </v>
   <v>       0.33558000       0.99863000       0.24353000 </v>
   <v>       0.66801000       0.33262000       0.24229000 </v>
   <v>       0.00448000       0.66739000       0.24217000 </v>
   <v>       0.49556735       0.83404914       0.30120377 </v>
   <v>       0.66521000       0.67351000       0.24327000 </v>
   <v>       0.66620000       0.99680000       0.00000000 </v>
   <v>       0.66787532       0.98978579       0.36338137 </v>
   <v>       0.33213000       0.33386000       0.00135000 </v>
   <v>       0.32455453       0.33256390       0.36435065 </v>
   <v>       0.67040000       0.33673000       0.00321000 </v>
   <v>       0.66728000       0.99998000       0.12246000 </v>
   <v>       0.99806000       0.33495000       0.12235000 </v>
   <v>       0.33675000       0.33238000       0.12261000 </v>
   <v>       0.67241174       0.34177378       0.39357448 </v>
  </varray>
  <varray name="selective"  type="logical" >
   <v type="logical" >  F  F  F </v>
   <v type="logical" >  T  T  T </v>
   <v type="logical" >  T  T  T </v>
   <v type="logical" >  F  F  F </v>
   <v type="logical" >  T  T  T </v>
   <v type="logical" >  F  F  F </v>
   <v type="logical" >  T  T  T </v>
   <v type="logical" >  F  F  F </v>
   <v type="logical" >  T  T  T </v>
   <v type="logical" >  T  T  T </v>
   <v type="logical" >  T  T  T </v>
   <v type="logical" >  F  F  F </v>
   <v type="logical" >  T  T  T </v>
   <v type="logical" >  F  F  F </v>
   <v type="logical" >  T  T  T </v>
   <v type="logical" >  F  F  F </v>
   <v type="logical" >  F  F  F </v>
   <v type="logical" >  T  T  T </v>
   <v type="logical" >  F  F  F </v>
   <v type="logical" >  F  F  F </v>
   <v type="logical" >  F  F  F </v>
   <v type="logical" >  T  T  T </v>
   <v type="logical" >  F  F  F </v>
   <v type="logical" >  F  F  F </v>
   <v type="logical" >  F  F  F </v>
   <v type="logical" >  F  F  F </v>
   <v type="logical" >  T  T  T </v>
   <v type="logical" >  F  F  F </v>
   <v type="logical" >  F  F  F </v>
   <v type="logical" >  T  T  T </v>
   <v type="logical" >  F  F  F </v>
   <v type="logical" >  F  F  F </v>
   <v type="logical" >  T  T  T </v>
   <v type="logical" >  F  F  F </v>
   <v type="logical" >  F  F  F </v>
   <v type="logical" >  F  F  F </v>
   <v type="logical" >  F  F  F </v>
   <v type="logical" >  F  F  F </v>
   <v type="logical" >  F  F  F </v>
   <v type="logical" >  F  F  F </v>
   <v type="logical" >  F  F  F </v>
   <v type="logical" >  F  F  F </v>
   <v type="logical" >  F  F  F </v>
   <v type="logical" >  F  F  F </v>
   <v type="logical" >  F  F  F </v>
   <v type="logical" >  F  F  F </v>
   <v type="logical" >  F  F  F </v>
   <v type="logical" >  F  F  F </v>
   <v type="logical" >  F  F  F </v>
   <v type="logical" >  F  F  F </v>
   <v type="logical" >  F  F  F </v>
   <v type="logical" >  F  F  F </v>
   <v type="logical" >  T  T  T </v>
   <v type="logical" >  F  F  F </v>
   <v type="logical" >  F  F  F </v>
   <v type="logical" >  T  T  T </v>
   <v type="logical" >  F  F  F </v>
   <v type="logical" >  T  T  T </v>
   <v type="logical" >  F  F  F </v>
   <v type="logical" >  F  F  F </v>
   <v type="logical" >  F  F  F </v>
   <v type="logical" >  F  F  F </v>
   <v type="logical" >  T  T  T </v>
  </varray>
  <nose>
   <v>      -3.00000000       0.00000000       0.00010000       0.00010000 </v>
  </nose>
 </structure>
</modeling>
